Configuration for Li nanopillar Bulk Crystal

0 atoms
1 atom types
0 126.35999999999999 xlo xhi
0 126.35999999999999 ylo yhi
0 105.3 zlo zhi

Atoms
Position for Li nanopillar atoms
