Configuration for bcc Li unit cell

2 atoms
1 atom types
0 3.51 xlo xhi
0 3.51 ylo yhi
0 3.51 zlo zhi

Atoms
Position for bcc Li atoms
1 1 0 0 0 0
2 1 0 1.7505 1.7505 1.7505