Configuration for Li/Li2CO3 nanopillar Bulk Crystal

11075 atoms
1 atom types
0 58.88304000000001 xlo xhi
0 51.92376 ylo yhi
0 173.649 zlo zhi

Atoms
Position for Li/Li2CO3 nanopillar atoms
       1        2        0   -20.912553   -17.254485     1.447075
       2        3        0   -19.177686   -20.470893     1.072300
       3        2        0   -23.226653   -12.927505     1.447075
       4        3        0   -23.887346   -14.030095     1.447075
       5        3        0   -21.491786   -16.143913     1.072300
       6        3        0   -22.945377   -16.034943     3.966451
       7        2        0   -25.461853   -11.588105     7.235375
       8        3        0   -23.726986   -14.804513     6.860600
       9        1        0   -25.563444   -11.444158     1.961980
      10        2        0   -25.540753    -8.600525     1.447075
      11        3        0   -26.201446    -9.703115     1.447075
      12        3        0   -23.805886   -11.816933     1.072300
      13        3        0   -25.259477   -11.707963     3.966451
      14        3        0   -26.041086   -10.477533     6.860600
      15        3        0   -26.119986    -7.489953     1.072300
      16        1        0   -14.567839   -23.314868     4.856130
      17        1        0   -17.041997   -21.832303     3.826322
      18        1        0   -16.188381   -22.942534     0.932171
      19        1        0   -13.714224   -24.425098     1.961980
      20        2        0   -13.691533   -21.581465     1.447075
      21        3        0   -14.352226   -22.684055     1.447075
      22        3        0   -17.345969   -21.568498     1.821851
      23        3        0   -11.956666   -24.797873     1.072300
      24        1        0   -16.803039   -21.975468    10.644430
      25        1        0   -15.949424   -23.085698     7.750280
      26        2        0   -15.926733   -20.242065     7.235375
      27        3        0   -16.587426   -21.344655     7.235375
      28        3        0   -14.191866   -23.458473     6.860600
      29        1        0   -19.038239   -20.636068    16.432730
      30        2        0   -18.161933   -18.902665    13.023675
      31        3        0   -18.822626   -20.005255    13.023675
      32        3        0   -16.427066   -22.119073    12.648900
      33        2        0   -20.397133   -17.563265    18.811975
      34        3        0   -18.662266   -20.779673    18.437200
      35        2        0   -22.632333   -16.223865    24.600275
      36        1        0   -16.881939   -18.987888     4.856130
      37        1        0   -19.356097   -17.505323     3.826322
      38        1        0   -18.502481   -18.615554     0.932171
      39        1        0   -16.028324   -20.098118     1.961980
      40        2        0   -16.005633   -17.254485     1.447075
      41        3        0   -16.666326   -18.357075     1.447075
      42        3        0   -18.718095   -19.246366     4.341226
      43        3        0   -19.660069   -17.241518     1.821851
      44        3        0   -14.270766   -20.470893     1.072300
      45        3        0   -15.724357   -20.361923     3.966451
      46        3        0   -21.113657   -17.132544     4.716001
      47        1        0   -19.117139   -17.648488    10.644430
      48        1        0   -21.591297   -16.165923     9.614622
      49        1        0   -20.737681   -17.276154     6.720471
      50        1        0   -18.263524   -18.758718     7.750280
      51        2        0   -18.240833   -15.915085     7.235375
      52        3        0   -18.901526   -17.017675     7.235375
      53        3        0   -20.953295   -17.906966    10.129526
      54        3        0   -21.895269   -15.902118     7.610151
      55        3        0   -16.505966   -19.131493     6.860600
      56        3        0   -17.959557   -19.022523     9.754751
      57        1        0   -21.352339   -16.309088    16.432730
      58        1        0   -23.826497   -14.826523    15.402922
      59        1        0   -22.972881   -15.936754    12.508771
      60        1        0   -20.498724   -17.419318    13.538580
      61        2        0   -20.476033   -14.575685    13.023675
      62        3        0   -21.136726   -15.678275    13.023675
      63        3        0   -18.741166   -17.792093    12.648900
      64        3        0   -20.194757   -17.683123    15.543051
      65        1        0   -23.587539   -14.969688    22.221030
      66        1        0   -22.733924   -16.079918    19.326880
      67        2        0   -22.711233   -13.236285    18.811975
      68        3        0   -23.371926   -14.338875    18.811975
      69        3        0   -20.976366   -16.452693    18.437200
      70        3        0   -22.429957   -16.343723    21.331351
      71        2        0   -24.946433   -11.896885    24.600275
      72        3        0   -23.211566   -15.113293    24.225500
      73        1        0   -19.196039   -14.660908     4.856130
      74        1        0   -21.670197   -13.178343     3.826322
      75        1        0   -20.816581   -14.288574     0.932171
      76        1        0   -18.342424   -15.771138     1.961980
      77        2        0   -18.319733   -12.927505     1.447075
      78        2        0   -21.692888   -16.021976     4.341226
      79        3        0   -18.980426   -14.030095     1.447075
      80        3        0   -21.032195   -14.919386     4.341226
      81        3        0   -21.974169   -12.914538     1.821851
      82        3        0   -16.584866   -16.143913     1.072300
      83        3        0   -18.038457   -16.034943     3.966451
      84        3        0   -23.427757   -12.805564     4.716001
      85        1        0   -21.431239   -13.321508    10.644430
      86        1        0   -23.905397   -11.838943     9.614622
      87        1        0   -23.051781   -12.949174     6.720471
      88        1        0   -20.577624   -14.431738     7.750280
      89        2        0   -20.554933   -11.588105     7.235375
      90        2        0   -23.928088   -14.682576    10.129526
      91        3        0   -21.215626   -12.690695     7.235375
      92        3        0   -23.267395   -13.579986    10.129526
      93        3        0   -24.209369   -11.575138     7.610151
      94        3        0   -18.820066   -14.804513     6.860600
      95        3        0   -20.273657   -14.695543     9.754751
      96        1        0   -23.666439   -11.982108    16.432730
      97        1        0   -25.286981   -11.609774    12.508771
      98        1        0   -22.812824   -13.092338    13.538580
      99        2        0   -22.790133   -10.248705    13.023675
     100        3        0   -23.450826   -11.351295    13.023675
     101        3        0   -21.055266   -13.465113    12.648900
     102        3        0   -22.508857   -13.356143    15.543051
     103        1        0   -25.901639   -10.642708    22.221030
     104        1        0   -25.048024   -11.752938    19.326880
     105        2        0   -25.025333    -8.909305    18.811975
     106        3        0   -25.686026   -10.011895    18.811975
     107        3        0   -23.290466   -12.125713    18.437200
     108        3        0   -24.744057   -12.016743    21.331351
     109        3        0   -25.525666   -10.786313    24.225500
     110        1        0   -21.510139   -10.333928     4.856130
     111        1        0   -23.984297    -8.851363     3.826322
     112        1        0   -23.130681    -9.961594     0.932171
     113        1        0   -20.656524   -11.444158     1.961980
     114        2        0   -20.633833    -8.600525     1.447075
     115        2        0   -24.006988   -11.694996     4.341226
     116        3        0   -21.294526    -9.703115     1.447075
     117        3        0   -23.346295   -10.592406     4.341226
     118        3        0   -24.288269    -8.587558     1.821851
     119        3        0   -18.898966   -11.816933     1.072300
     120        3        0   -20.352557   -11.707963     3.966451
     121        3        0   -25.741857    -8.478584     4.716001
     122        1        0   -23.745339    -8.994528    10.644430
     123        1        0   -26.219497    -7.511963     9.614622
     124        1        0   -25.365881    -8.622194     6.720471
     125        1        0   -22.891724   -10.104758     7.750280
     126        2        0   -22.869033    -7.261125     7.235375
     127        3        0   -23.529726    -8.363715     7.235375
     128        3        0   -25.581495    -9.253006    10.129526
     129        3        0   -26.523469    -7.248158     7.610151
     130        3        0   -21.134166   -10.477533     6.860600
     131        3        0   -22.587757   -10.368563     9.754751
     132        1        0   -25.980539    -7.655128    16.432730
     133        1        0   -25.126924    -8.765358    13.538580
     134        2        0   -25.104233    -5.921725    13.023675
     135        3        0   -25.764926    -7.024315    13.023675
     136        3        0   -23.369366    -9.138133    12.648900
     137        3        0   -24.822957    -9.029163    15.543051
     138        2        0   -27.339433    -4.582325    18.811975
     139        3        0   -25.604566    -7.798733    18.437200
     140        1        0   -23.824239    -6.006948     4.856130
     141        1        0   -26.298397    -4.524383     3.826322
     142        1        0   -25.444781    -5.634614     0.932171
     143        1        0   -22.970624    -7.117178     1.961980
     144        2        0   -22.947933    -4.273545     1.447075
     145        2        0   -26.321088    -7.368016     4.341226
     146        3        0   -23.608626    -5.376135     1.447075
     147        3        0   -25.660395    -6.265426     4.341226
     148        3        0   -26.602369    -4.260578     1.821851
     149        3        0   -21.213066    -7.489953     1.072300
     150        3        0   -22.666657    -7.380983     3.966451
     151        1        0   -26.059439    -4.667548    10.644430
     152        1        0   -27.679981    -4.295214     6.720471
     153        1        0   -25.205824    -5.777778     7.750280
     154        2        0   -25.183133    -2.934145     7.235375
     155        3        0   -25.843826    -4.036735     7.235375
     156        3        0   -23.448266    -6.150553     6.860600
     157        3        0   -24.901857    -6.041583     9.754751
     158        1        0   -27.441024    -4.438378    13.538580
     159        2        0   -27.418333    -1.594745    13.023675
     160        3        0   -25.683466    -4.811153    12.648900
     161        3        0   -27.137057    -4.702183    15.543051
     162        1        0   -26.138339    -1.679968     4.856130
     163        1        0   -27.758881    -1.307634     0.932171
     164        1        0   -25.284724    -2.790198     1.961980
     165        2        0   -25.262033     0.053435     1.447075
     166        3        0   -25.922726    -1.049155     1.447075
     167        3        0   -27.974495    -1.938446     4.341226
     168        3        0   -23.527166    -3.162973     1.072300
     169        3        0   -24.980757    -3.054003     3.966451
     170        1        0   -27.519924    -1.450798     7.750280
     171        2        0   -27.497233     1.392835     7.235375
     172        3        0   -25.762366    -1.823573     6.860600
     173        3        0   -27.215957    -1.714603     9.754751
     174        3        0   -27.997566    -0.484173    12.648900
     175        1        0   -27.598824     1.536782     1.961980
     176        2        0   -27.576133     4.380415     1.447075
     177        3        0   -25.841266     1.164007     1.072300
     178        3        0   -27.294857     1.272977     3.966451
     179        1        0    -9.820977   -26.159283     3.826322
     180        2        0    -6.470513   -25.908445     1.447075
     181        3        0    -7.131206   -27.011035     1.447075
     182        3        0   -10.124949   -25.895478     1.821851
     183        1        0    -9.582019   -26.302448    10.644430
     184        1        0   -12.056177   -24.819883     9.614622
     185        2        0    -8.705713   -24.569045     7.235375
     186        3        0    -9.366406   -25.671635     7.235375
     187        3        0   -12.360149   -24.556078     7.610151
     188        3        0   -13.813737   -24.447104    10.504301
     189        1        0   -11.817219   -24.963048    16.432730
     190        1        0   -14.291377   -23.480483    15.402922
     191        1        0   -13.437761   -24.590714    12.508771
     192        2        0   -10.940913   -23.229645    13.023675
     193        3        0   -11.601606   -24.332235    13.023675
     194        3        0   -14.595349   -23.216678    13.398451
     195        3        0    -9.206046   -26.446053    12.648900
     196        1        0   -14.052419   -23.623648    22.221030
     197        1        0   -16.526577   -22.141083    21.191222
     198        1        0   -15.672961   -23.251314    18.297071
     199        1        0   -13.198804   -24.733878    19.326880
     200        2        0   -13.176113   -21.890245    18.811975
     201        3        0   -13.836806   -22.992835    18.811975
     202        3        0   -16.830549   -21.877278    19.186751
     203        3        0   -11.441246   -25.106653    18.437200
     204        1        0   -16.287619   -22.284248    28.009330
     205        1        0   -18.761777   -20.801683    26.979522
     206        1        0   -15.434004   -23.394478    25.115180
     207        2        0   -15.411313   -20.550845    24.600275
     208        3        0   -16.072006   -21.653435    24.600275
     209        3        0   -19.065749   -20.537878    24.975051
     210        3        0   -13.676446   -23.767253    24.225500
     211        1        0   -18.522819   -20.944848    33.797630
     212        2        0   -17.646513   -19.211445    30.388575
     213        3        0   -18.307206   -20.314035    30.388575
     214        3        0   -15.911646   -22.427853    30.013800
     215        2        0   -19.881713   -17.872045    36.176875
     216        3        0   -20.542406   -18.974635    36.176875
     217        3        0   -18.146846   -21.088453    35.802100
     218        2        0   -22.116913   -16.532645    41.965175
     219        1        0    -9.660919   -23.314868     4.856130
     220        1        0   -12.135077   -21.832303     3.826322
     221        1        0   -11.281461   -22.942534     0.932171
     222        1        0    -8.807304   -24.425098     1.961980
     223        2        0    -8.784613   -21.581465     1.447075
     224        2        0   -12.157768   -24.675936     4.341226
     225        3        0    -9.445306   -22.684055     1.447075
     226        3        0   -11.497075   -23.573346     4.341226
     227        3        0   -12.439049   -21.568498     1.821851
     228        3        0    -7.049746   -24.797873     1.072300
     229        3        0    -8.503337   -24.688903     3.966451
     230        3        0   -13.892637   -21.459524     4.716001
     231        1        0   -11.896119   -21.975468    10.644430
     232        1        0   -14.370277   -20.492903     9.614622
     233        1        0   -13.516661   -21.603134     6.720471
     234        1        0   -11.042504   -23.085698     7.750280
     235        2        0   -11.019813   -20.242065     7.235375
     236        2        0   -14.392968   -23.336536    10.129526
     237        3        0   -11.680506   -21.344655     7.235375
     238        3        0   -13.732275   -22.233946    10.129526
     239        3        0   -14.674249   -20.229098     7.610151
     240        3        0    -9.284946   -23.458473     6.860600
     241        3        0   -10.738537   -23.349503     9.754751
     242        3        0   -16.127837   -20.120124    10.504301
     243        1        0   -14.131319   -20.636068    16.432730
     244        1        0   -16.605477   -19.153503    15.402922
     245        1        0   -15.751861   -20.263734    12.508771
     246        1        0   -13.277704   -21.746298    13.538580
     247        2        0   -13.255013   -18.902665    13.023675
     248        2        0   -16.628168   -21.997136    15.917826
     249        3        0   -13.915706   -20.005255    13.023675
     250        3        0   -15.967475   -20.894546    15.917826
     251        3        0   -16.909449   -18.889698    13.398451
     252        3        0   -11.520146   -22.119073    12.648900
     253        3        0   -12.973737   -22.010103    15.543051
     254        3        0   -18.363037   -18.780724    16.292601
     255        1        0   -16.366519   -19.296668    22.221030
     256        1        0   -18.840677   -17.814103    21.191222
     257        1        0   -17.987061   -18.924334    18.297071
     258        1        0   -15.512904   -20.406898    19.326880
     259        2        0   -15.490213   -17.563265    18.811975
     260        2        0   -18.863368   -20.657736    21.706126
     261        3        0   -16.150906   -18.665855    18.811975
     262        3        0   -18.202675   -19.555146    21.706126
     263        3        0   -19.144649   -17.550298    19.186751
     264        3        0   -13.755346   -20.779673    18.437200
     265        3        0   -15.208937   -20.670703    21.331351
     266        3        0   -20.598237   -17.441324    22.080901
     267        1        0   -18.601719   -17.957268    28.009330
     268        1        0   -21.075877   -16.474703    26.979522
     269        1        0   -20.222261   -17.584934    24.085371
     270        1        0   -17.748104   -19.067498    25.115180
     271        2        0   -17.725413   -16.223865    24.600275
     272        3        0   -18.386106   -17.326455    24.600275
     273        3        0   -20.437875   -18.215746    27.494426
     274        3        0   -21.379849   -16.210898    24.975051
     275        3        0   -15.990546   -19.440273    24.225500
     276        3        0   -17.444137   -19.331303    27.119651
     277        3        0   -22.833437   -16.101924    27.869201
     278        1        0   -20.836919   -16.617868    33.797630
     279        1        0   -23.311077   -15.135303    32.767822
     280        1        0   -22.457461   -16.245534    29.873671
     281        1        0   -19.983304   -17.728098    30.903480
     282        2        0   -19.960613   -14.884465    30.388575
     283        3        0   -20.621306   -15.987055    30.388575
     284        3        0   -23.615049   -14.871498    30.763351
     285        3        0   -18.225746   -18.100873    30.013800
     286        3        0   -19.679337   -17.991903    32.907951
     287        1        0   -23.072119   -15.278468    39.585930
     288        1        0   -22.218504   -16.388698    36.691780
     289        2        0   -22.195813   -13.545065    36.176875
     290        3        0   -22.856506   -14.647655    36.176875
     291        3        0   -20.460946   -16.761473    35.802100
     292        3        0   -21.914537   -16.652503    38.696251
     293        2        0   -24.431013   -12.205665    41.965175
     294        3        0   -22.696146   -15.422073    41.590400
     295        1        0   -11.975019   -18.987888     4.856130
     296        1        0   -14.449177   -17.505323     3.826322
     297        1        0   -13.595561   -18.615554     0.932171
     298        1        0   -11.121404   -20.098118     1.961980
     299        2        0   -14.471868   -20.348956     4.341226
     300        3        0   -11.759406   -18.357075     1.447075
     301        3        0   -13.811175   -19.246366     4.341226
     302        3        0   -14.753149   -17.241518     1.821851
     303        3        0    -9.363846   -20.470893     1.072300
     304        3        0   -10.817437   -20.361923     3.966451
     305        3        0   -16.206737   -17.132544     4.716001
     306        1        0   -14.210219   -17.648488    10.644430
     307        1        0   -16.684377   -16.165923     9.614622
     308        1        0   -15.830761   -17.276154     6.720471
     309        1        0   -13.356604   -18.758718     7.750280
     310        2        0   -16.707068   -19.009556    10.129526
     311        3        0   -13.994606   -17.017675     7.235375
     312        3        0   -16.046375   -17.906966    10.129526
     313        3        0   -16.988349   -15.902118     7.610151
     314        3        0   -11.599046   -19.131493     6.860600
     315        3        0   -13.052637   -19.022523     9.754751
     316        3        0   -18.441937   -15.793144    10.504301
     317        1        0   -16.445419   -16.309088    16.432730
     318        1        0   -18.919577   -14.826523    15.402922
     319        1        0   -18.065961   -15.936754    12.508771
     320        1        0   -15.591804   -17.419318    13.538580
     321        2        0   -15.569113   -14.575685    13.023675
     322        2        0   -18.942268   -17.670156    15.917826
     323        3        0   -16.229806   -15.678275    13.023675
     324        3        0   -18.281575   -16.567566    15.917826
     325        3        0   -19.223549   -14.562718    13.398451
     326        3        0   -13.834246   -17.792093    12.648900
     327        3        0   -15.287837   -17.683123    15.543051
     328        3        0   -20.677137   -14.453744    16.292601
     329        1        0   -18.680619   -14.969688    22.221030
     330        1        0   -21.154777   -13.487123    21.191222
     331        1        0   -20.301161   -14.597354    18.297071
     332        1        0   -17.827004   -16.079918    19.326880
     333        2        0   -17.804313   -13.236285    18.811975
     334        2        0   -21.177468   -16.330756    21.706126
     335        3        0   -18.465006   -14.338875    18.811975
     336        3        0   -20.516775   -15.228166    21.706126
     337        3        0   -21.458749   -13.223318    19.186751
     338        3        0   -16.069446   -16.452693    18.437200
     339        3        0   -17.523037   -16.343723    21.331351
     340        3        0   -22.912337   -13.114344    22.080901
     341        1        0   -20.915819   -13.630288    28.009330
     342        1        0   -23.389977   -12.147723    26.979522
     343        1        0   -22.536361   -13.257954    24.085371
     344        1        0   -20.062204   -14.740518    25.115180
     345        2        0   -20.039513   -11.896885    24.600275
     346        2        0   -23.412668   -14.991356    27.494426
     347        3        0   -20.700206   -12.999475    24.600275
     348        3        0   -22.751975   -13.888766    27.494426
     349        3        0   -23.693949   -11.883918    24.975051
     350        3        0   -18.304646   -15.113293    24.225500
     351        3        0   -19.758237   -15.004323    27.119651
     352        3        0   -25.147537   -11.774944    27.869201
     353        1        0   -23.151019   -12.290888    33.797630
     354        1        0   -25.625177   -10.808323    32.767822
     355        1        0   -24.771561   -11.918554    29.873671
     356        1        0   -22.297404   -13.401118    30.903480
     357        2        0   -22.274713   -10.557485    30.388575
     358        3        0   -22.935406   -11.660075    30.388575
     359        3        0   -24.987175   -12.549366    33.282726
     360        3        0   -25.929149   -10.544518    30.763351
     361        3        0   -20.539846   -13.773893    30.013800
     362        3        0   -21.993437   -13.664923    32.907951
     363        1        0   -25.386219   -10.951488    39.585930
     364        1        0   -24.532604   -12.061718    36.691780
     365        2        0   -24.509913    -9.218085    36.176875
     366        3        0   -25.170606   -10.320675    36.176875
     367        3        0   -22.775046   -12.434493    35.802100
     368        3        0   -24.228637   -12.325523    38.696251
     369        2        0   -26.745113    -7.878685    41.965175
     370        3        0   -25.010246   -11.095093    41.590400
     371        1        0   -16.763277   -13.178343     3.826322
     372        1        0   -15.909661   -14.288574     0.932171
     373        2        0   -16.785968   -16.021976     4.341226
     374        3        0   -16.125275   -14.919386     4.341226
     375        3        0   -17.067249   -12.914538     1.821851
     376        3        0   -18.520837   -12.805564     4.716001
     377        1        0   -16.524319   -13.321508    10.644430
     378        1        0   -18.998477   -11.838943     9.614622
     379        1        0   -18.144861   -12.949174     6.720471
     380        1        0   -15.670704   -14.431738     7.750280
     381        2        0   -19.021168   -14.682576    10.129526
     382        3        0   -18.360475   -13.579986    10.129526
     383        3        0   -19.302449   -11.575138     7.610151
     384        3        0   -15.366737   -14.695543     9.754751
     385        3        0   -20.756037   -11.466164    10.504301
     386        1        0   -18.759519   -11.982108    16.432730
     387        1        0   -21.233677   -10.499543    15.402922
     388        1        0   -20.380061   -11.609774    12.508771
     389        1        0   -17.905904   -13.092338    13.538580
     390        2        0   -21.256368   -13.343176    15.917826
     391        3        0   -18.543906   -11.351295    13.023675
     392        3        0   -20.595675   -12.240586    15.917826
     393        3        0   -21.537649   -10.235738    13.398451
     394        3        0   -17.601937   -13.356143    15.543051
     395        3        0   -22.991237   -10.126764    16.292601
     396        1        0   -20.994719   -10.642708    22.221030
     397        1        0   -23.468877    -9.160143    21.191222
     398        1        0   -22.615261   -10.270374    18.297071
     399        1        0   -20.141104   -11.752938    19.326880
     400        2        0   -20.118413    -8.909305    18.811975
     401        2        0   -23.491568   -12.003776    21.706126
     402        3        0   -20.779106   -10.011895    18.811975
     403        3        0   -22.830875   -10.901186    21.706126
     404        3        0   -23.772849    -8.896338    19.186751
     405        3        0   -18.383546   -12.125713    18.437200
     406        3        0   -19.837137   -12.016743    21.331351
     407        3        0   -25.226437    -8.787364    22.080901
     408        1        0   -23.229919    -9.303308    28.009330
     409        1        0   -25.704077    -7.820743    26.979522
     410        1        0   -24.850461    -8.930974    24.085371
     411        1        0   -22.376304   -10.413538    25.115180
     412        2        0   -22.353613    -7.569905    24.600275
     413        2        0   -25.726768   -10.664376    27.494426
     414        3        0   -23.014306    -8.672495    24.600275
     415        3        0   -25.066075    -9.561786    27.494426
     416        3        0   -26.008049    -7.556938    24.975051
     417        3        0   -20.618746   -10.786313    24.225500
     418        3        0   -22.072337   -10.677343    27.119651
     419        1        0   -25.465119    -7.963908    33.797630
     420        1        0   -24.611504    -9.074138    30.903480
     421        2        0   -24.588813    -6.230505    30.388575
     422        3        0   -25.249506    -7.333095    30.388575
     423        3        0   -22.853946    -9.446913    30.013800
     424        3        0   -24.307537    -9.337943    32.907951
     425        1        0   -26.846704    -7.734738    36.691780
     426        2        0   -26.824013    -4.891105    36.176875
     427        3        0   -25.089146    -8.107513    35.802100
     428        3        0   -26.542737    -7.998543    38.696251
     429        2        0   -19.100068   -11.694996     4.341226
     430        3        0   -18.439375   -10.592406     4.341226
     431        3        0   -19.381349    -8.587558     1.821851
     432        3        0   -20.834937    -8.478584     4.716001
     433        1        0   -21.312577    -7.511963     9.614622
     434        1        0   -20.458961    -8.622194     6.720471
     435        2        0   -21.335268   -10.355596    10.129526
     436        3        0   -20.674575    -9.253006    10.129526
     437        3        0   -21.616549    -7.248158     7.610151
     438        3        0   -23.070137    -7.139184    10.504301
     439        1        0   -21.073619    -7.655128    16.432730
     440        1        0   -23.547777    -6.172563    15.402922
     441        1        0   -22.694161    -7.282794    12.508771
     442        1        0   -20.220004    -8.765358    13.538580
     443        2        0   -23.570468    -9.016196    15.917826
     444        3        0   -20.858006    -7.024315    13.023675
     445        3        0   -22.909775    -7.913606    15.917826
     446        3        0   -23.851749    -5.908758    13.398451
     447        3        0   -19.916037    -9.029163    15.543051
     448        3        0   -25.305337    -5.799784    16.292601
     449        1        0   -23.308819    -6.315728    22.221030
     450        1        0   -25.782977    -4.833163    21.191222
     451        1        0   -24.929361    -5.943394    18.297071