Configuration for Li/Li2CO3 nanopillar Bulk Crystal

17705 atoms
1 atom types
0 42.12 xlo xhi
0 42.12 ylo yhi
0 105.3 zlo zhi

Atoms
Position for Li/Li2CO3 nanopillar atoms
       1        1        0     0.000000     0.000000     0.000000
       2        1        0     1.750500     1.750500     1.750500
       3        1        0   -19.309500    -5.269500     1.750500
       4        1        0   -19.309500    -5.269500     5.260500
       5        1        0   -19.309500    -5.269500     8.770500
       6        1        0   -19.309500    -5.269500    12.280500
       7        1        0   -19.309500    -5.269500    15.790500
       8        1        0   -19.309500    -5.269500    19.300500
       9        1        0   -19.309500    -5.269500    22.810500
      10        1        0   -19.309500    -5.269500    26.320500
      11        1        0   -19.309500    -5.269500    29.830500
      12        1        0   -19.309500    -5.269500    33.340500
      13        1        0   -19.309500    -5.269500    36.850500
      14        1        0   -19.309500    -5.269500    40.360500
      15        1        0   -19.309500    -5.269500    43.870500
      16        1        0   -19.309500    -5.269500    47.380500
      17        1        0   -19.309500    -5.269500    50.890500
      18        1        0   -19.309500    -5.269500    54.400500
      19        1        0   -19.309500    -5.269500    57.910500
      20        1        0   -19.309500    -5.269500    61.420500
      21        1        0   -19.309500    -5.269500    64.930500
      22        1        0   -19.309500    -5.269500    68.440500
      23        1        0   -19.309500    -5.269500    71.950500
      24        1        0   -19.309500    -5.269500    75.460500
      25        1        0   -19.309500    -5.269500    78.970500
      26        1        0   -19.309500    -5.269500    82.480500
      27        1        0   -19.309500    -5.269500    85.990500
      28        1        0   -19.309500    -5.269500    89.500500
      29        1        0   -19.309500    -5.269500    93.010500
      30        1        0   -19.309500    -5.269500    96.520500
      31        1        0   -19.309500    -5.269500   100.030500
      32        1        0   -19.309500    -5.269500   103.540500
      33        1        0   -19.309500    -1.759500     1.750500
      34        1        0   -19.309500    -1.759500     5.260500
      35        1        0   -19.309500    -1.759500     8.770500
      36        1        0   -19.309500    -1.759500    12.280500
      37        1        0   -19.309500    -1.759500    15.790500
      38        1        0   -19.309500    -1.759500    19.300500
      39        1        0   -19.309500    -1.759500    22.810500
      40        1        0   -19.309500    -1.759500    26.320500
      41        1        0   -19.309500    -1.759500    29.830500
      42        1        0   -19.309500    -1.759500    33.340500
      43        1        0   -19.309500    -1.759500    36.850500
      44        1        0   -19.309500    -1.759500    40.360500
      45        1        0   -19.309500    -1.759500    43.870500
      46        1        0   -19.309500    -1.759500    47.380500
      47        1        0   -19.309500    -1.759500    50.890500
      48        1        0   -19.309500    -1.759500    54.400500
      49        1        0   -19.309500    -1.759500    57.910500
      50        1        0   -19.309500    -1.759500    61.420500
      51        1        0   -19.309500    -1.759500    64.930500
      52        1        0   -19.309500    -1.759500    68.440500
      53        1        0   -19.309500    -1.759500    71.950500
      54        1        0   -19.309500    -1.759500    75.460500
      55        1        0   -19.309500    -1.759500    78.970500
      56        1        0   -19.309500    -1.759500    82.480500
      57        1        0   -19.309500    -1.759500    85.990500
      58        1        0   -19.309500    -1.759500    89.500500
      59        1        0   -19.309500    -1.759500    93.010500
      60        1        0   -19.309500    -1.759500    96.520500
      61        1        0   -19.309500    -1.759500   100.030500
      62        1        0   -19.309500    -1.759500   103.540500
      63        1        0   -19.309500     1.750500     1.750500
      64        1        0   -19.309500     1.750500     5.260500
      65        1        0   -19.309500     1.750500     8.770500
      66        1        0   -19.309500     1.750500    12.280500
      67        1        0   -19.309500     1.750500    15.790500
      68        1        0   -19.309500     1.750500    19.300500
      69        1        0   -19.309500     1.750500    22.810500
      70        1        0   -19.309500     1.750500    26.320500
      71        1        0   -19.309500     1.750500    29.830500
      72        1        0   -19.309500     1.750500    33.340500
      73        1        0   -19.309500     1.750500    36.850500
      74        1        0   -19.309500     1.750500    40.360500
      75        1        0   -19.309500     1.750500    43.870500
      76        1        0   -19.309500     1.750500    47.380500
      77        1        0   -19.309500     1.750500    50.890500
      78        1        0   -19.309500     1.750500    54.400500
      79        1        0   -19.309500     1.750500    57.910500
      80        1        0   -19.309500     1.750500    61.420500
      81        1        0   -19.309500     1.750500    64.930500
      82        1        0   -19.309500     1.750500    68.440500
      83        1        0   -19.309500     1.750500    71.950500
      84        1        0   -19.309500     1.750500    75.460500
      85        1        0   -19.309500     1.750500    78.970500
      86        1        0   -19.309500     1.750500    82.480500
      87        1        0   -19.309500     1.750500    85.990500
      88        1        0   -19.309500     1.750500    89.500500
      89        1        0   -19.309500     1.750500    93.010500
      90        1        0   -19.309500     1.750500    96.520500
      91        1        0   -19.309500     1.750500   100.030500
      92        1        0   -19.309500     1.750500   103.540500
      93        1        0   -19.309500     5.260500     1.750500
      94        1        0   -19.309500     5.260500     5.260500
      95        1        0   -19.309500     5.260500     8.770500
      96        1        0   -19.309500     5.260500    12.280500
      97        1        0   -19.309500     5.260500    15.790500
      98        1        0   -19.309500     5.260500    19.300500
      99        1        0   -19.309500     5.260500    22.810500
     100        1        0   -19.309500     5.260500    26.320500
     101        1        0   -19.309500     5.260500    29.830500
     102        1        0   -19.309500     5.260500    33.340500
     103        1        0   -19.309500     5.260500    36.850500
     104        1        0   -19.309500     5.260500    40.360500
     105        1        0   -19.309500     5.260500    43.870500
     106        1        0   -19.309500     5.260500    47.380500
     107        1        0   -19.309500     5.260500    50.890500
     108        1        0   -19.309500     5.260500    54.400500
     109        1        0   -19.309500     5.260500    57.910500
     110        1        0   -19.309500     5.260500    61.420500
     111        1        0   -19.309500     5.260500    64.930500
     112        1        0   -19.309500     5.260500    68.440500
     113        1        0   -19.309500     5.260500    71.950500
     114        1        0   -19.309500     5.260500    75.460500
     115        1        0   -19.309500     5.260500    78.970500
     116        1        0   -19.309500     5.260500    82.480500
     117        1        0   -19.309500     5.260500    85.990500
     118        1        0   -19.309500     5.260500    89.500500
     119        1        0   -19.309500     5.260500    93.010500
     120        1        0   -19.309500     5.260500    96.520500
     121        1        0   -19.309500     5.260500   100.030500
     122        1        0   -19.309500     5.260500   103.540500
     123        1        0   -15.799500   -12.289500     1.750500
     124        1        0   -15.799500   -12.289500     5.260500
     125        1        0   -15.799500   -12.289500     8.770500
     126        1        0   -15.799500   -12.289500    12.280500
     127        1        0   -15.799500   -12.289500    15.790500
     128        1        0   -15.799500   -12.289500    19.300500
     129        1        0   -15.799500   -12.289500    22.810500
     130        1        0   -15.799500   -12.289500    26.320500
     131        1        0   -15.799500   -12.289500    29.830500
     132        1        0   -15.799500   -12.289500    33.340500
     133        1        0   -15.799500   -12.289500    36.850500
     134        1        0   -15.799500   -12.289500    40.360500
     135        1        0   -15.799500   -12.289500    43.870500
     136        1        0   -15.799500   -12.289500    47.380500
     137        1        0   -15.799500   -12.289500    50.890500
     138        1        0   -15.799500   -12.289500    54.400500
     139        1        0   -15.799500   -12.289500    57.910500
     140        1        0   -15.799500   -12.289500    61.420500
     141        1        0   -15.799500   -12.289500    64.930500
     142        1        0   -15.799500   -12.289500    68.440500
     143        1        0   -15.799500   -12.289500    71.950500
     144        1        0   -15.799500   -12.289500    75.460500
     145        1        0   -15.799500   -12.289500    78.970500
     146        1        0   -15.799500   -12.289500    82.480500
     147        1        0   -15.799500   -12.289500    85.990500
     148        1        0   -15.799500   -12.289500    89.500500
     149        1        0   -15.799500   -12.289500    93.010500
     150        1        0   -15.799500   -12.289500    96.520500
     151        1        0   -15.799500   -12.289500   100.030500
     152        1        0   -15.799500   -12.289500   103.540500
     153        1        0   -17.550000   -10.530000     0.000000
     154        1        0   -15.799500    -8.779500     1.750500
     155        1        0   -17.550000   -10.530000     3.510000
     156        1        0   -15.799500    -8.779500     5.260500
     157        1        0   -17.550000   -10.530000     7.020000
     158        1        0   -15.799500    -8.779500     8.770500
     159        1        0   -17.550000   -10.530000    10.530000
     160        1        0   -15.799500    -8.779500    12.280500
     161        1        0   -17.550000   -10.530000    14.040000
     162        1        0   -15.799500    -8.779500    15.790500
     163        1        0   -17.550000   -10.530000    17.550000
     164        1        0   -15.799500    -8.779500    19.300500
     165        1        0   -17.550000   -10.530000    21.060000
     166        1        0   -15.799500    -8.779500    22.810500
     167        1        0   -17.550000   -10.530000    24.570000
     168        1        0   -15.799500    -8.779500    26.320500
     169        1        0   -17.550000   -10.530000    28.080000
     170        1        0   -15.799500    -8.779500    29.830500
     171        1        0   -17.550000   -10.530000    31.590000
     172        1        0   -15.799500    -8.779500    33.340500
     173        1        0   -17.550000   -10.530000    35.100000
     174        1        0   -15.799500    -8.779500    36.850500
     175        1        0   -17.550000   -10.530000    38.610000
     176        1        0   -15.799500    -8.779500    40.360500
     177        1        0   -17.550000   -10.530000    42.120000
     178        1        0   -15.799500    -8.779500    43.870500
     179        1        0   -17.550000   -10.530000    45.630000
     180        1        0   -15.799500    -8.779500    47.380500
     181        1        0   -17.550000   -10.530000    49.140000
     182        1        0   -15.799500    -8.779500    50.890500
     183        1        0   -17.550000   -10.530000    52.650000
     184        1        0   -15.799500    -8.779500    54.400500
     185        1        0   -17.550000   -10.530000    56.160000
     186        1        0   -15.799500    -8.779500    57.910500
     187        1        0   -17.550000   -10.530000    59.670000
     188        1        0   -15.799500    -8.779500    61.420500
     189        1        0   -17.550000   -10.530000    63.180000
     190        1        0   -15.799500    -8.779500    64.930500
     191        1        0   -17.550000   -10.530000    66.690000
     192        1        0   -15.799500    -8.779500    68.440500
     193        1        0   -17.550000   -10.530000    70.200000
     194        1        0   -15.799500    -8.779500    71.950500
     195        1        0   -17.550000   -10.530000    73.710000
     196        1        0   -15.799500    -8.779500    75.460500
     197        1        0   -17.550000   -10.530000    77.220000
     198        1        0   -15.799500    -8.779500    78.970500
     199        1        0   -17.550000   -10.530000    80.730000
     200        1        0   -15.799500    -8.779500    82.480500
     201        1        0   -17.550000   -10.530000    84.240000
     202        1        0   -15.799500    -8.779500    85.990500
     203        1        0   -17.550000   -10.530000    87.750000
     204        1        0   -15.799500    -8.779500    89.500500
     205        1        0   -17.550000   -10.530000    91.260000
     206        1        0   -15.799500    -8.779500    93.010500
     207        1        0   -17.550000   -10.530000    94.770000
     208        1        0   -15.799500    -8.779500    96.520500
     209        1        0   -17.550000   -10.530000    98.280000
     210        1        0   -15.799500    -8.779500   100.030500
     211        1        0   -17.550000   -10.530000   101.790000
     212        1        0   -15.799500    -8.779500   103.540500
     213        1        0   -17.550000    -7.020000     0.000000
     214        1        0   -15.799500    -5.269500     1.750500
     215        1        0   -17.550000    -7.020000     3.510000
     216        1        0   -15.799500    -5.269500     5.260500
     217        1        0   -17.550000    -7.020000     7.020000
     218        1        0   -15.799500    -5.269500     8.770500
     219        1        0   -17.550000    -7.020000    10.530000
     220        1        0   -15.799500    -5.269500    12.280500
     221        1        0   -17.550000    -7.020000    14.040000
     222        1        0   -15.799500    -5.269500    15.790500
     223        1        0   -17.550000    -7.020000    17.550000
     224        1        0   -15.799500    -5.269500    19.300500
     225        1        0   -17.550000    -7.020000    21.060000
     226        1        0   -15.799500    -5.269500    22.810500
     227        1        0   -17.550000    -7.020000    24.570000
     228        1        0   -15.799500    -5.269500    26.320500
     229        1        0   -17.550000    -7.020000    28.080000
     230        1        0   -15.799500    -5.269500    29.830500
     231        1        0   -17.550000    -7.020000    31.590000
     232        1        0   -15.799500    -5.269500    33.340500
     233        1        0   -17.550000    -7.020000    35.100000
     234        1        0   -15.799500    -5.269500    36.850500
     235        1        0   -17.550000    -7.020000    38.610000
     236        1        0   -15.799500    -5.269500    40.360500
     237        1        0   -17.550000    -7.020000    42.120000
     238        1        0   -15.799500    -5.269500    43.870500
     239        1        0   -17.550000    -7.020000    45.630000
     240        1        0   -15.799500    -5.269500    47.380500
     241        1        0   -17.550000    -7.020000    49.140000
     242        1        0   -15.799500    -5.269500    50.890500
     243        1        0   -17.550000    -7.020000    52.650000
     244        1        0   -15.799500    -5.269500    54.400500
     245        1        0   -17.550000    -7.020000    56.160000
     246        1        0   -15.799500    -5.269500    57.910500
     247        1        0   -17.550000    -7.020000    59.670000
     248        1        0   -15.799500    -5.269500    61.420500
     249        1        0   -17.550000    -7.020000    63.180000
     250        1        0   -15.799500    -5.269500    64.930500
     251        1        0   -17.550000    -7.020000    66.690000
     252        1        0   -15.799500    -5.269500    68.440500
     253        1        0   -17.550000    -7.020000    70.200000
     254        1        0   -15.799500    -5.269500    71.950500
     255        1        0   -17.550000    -7.020000    73.710000
     256        1        0   -15.799500    -5.269500    75.460500
     257        1        0   -17.550000    -7.020000    77.220000
     258        1        0   -15.799500    -5.269500    78.970500
     259        1        0   -17.550000    -7.020000    80.730000
     260        1        0   -15.799500    -5.269500    82.480500
     261        1        0   -17.550000    -7.020000    84.240000
     262        1        0   -15.799500    -5.269500    85.990500
     263        1        0   -17.550000    -7.020000    87.750000
     264        1        0   -15.799500    -5.269500    89.500500
     265        1        0   -17.550000    -7.020000    91.260000
     266        1        0   -15.799500    -5.269500    93.010500
     267        1        0   -17.550000    -7.020000    94.770000
     268        1        0   -15.799500    -5.269500    96.520500
     269        1        0   -17.550000    -7.020000    98.280000
     270        1        0   -15.799500    -5.269500   100.030500
     271        1        0   -17.550000    -7.020000   101.790000
     272        1        0   -15.799500    -5.269500   103.540500
     273        1        0   -17.550000    -3.510000     0.000000
     274        1        0   -15.799500    -1.759500     1.750500
     275        1        0   -17.550000    -3.510000     3.510000
     276        1        0   -15.799500    -1.759500     5.260500
     277        1        0   -17.550000    -3.510000     7.020000
     278        1        0   -15.799500    -1.759500     8.770500
     279        1        0   -17.550000    -3.510000    10.530000
     280        1        0   -15.799500    -1.759500    12.280500
     281        1        0   -17.550000    -3.510000    14.040000
     282        1        0   -15.799500    -1.759500    15.790500
     283        1        0   -17.550000    -3.510000    17.550000
     284        1        0   -15.799500    -1.759500    19.300500
     285        1        0   -17.550000    -3.510000    21.060000
     286        1        0   -15.799500    -1.759500    22.810500
     287        1        0   -17.550000    -3.510000    24.570000
     288        1        0   -15.799500    -1.759500    26.320500
     289        1        0   -17.550000    -3.510000    28.080000
     290        1        0   -15.799500    -1.759500    29.830500
     291        1        0   -17.550000    -3.510000    31.590000
     292        1        0   -15.799500    -1.759500    33.340500
     293        1        0   -17.550000    -3.510000    35.100000
     294        1        0   -15.799500    -1.759500    36.850500
     295        1        0   -17.550000    -3.510000    38.610000
     296        1        0   -15.799500    -1.759500    40.360500
     297        1        0   -17.550000    -3.510000    42.120000
     298        1        0   -15.799500    -1.759500    43.870500
     299        1        0   -17.550000    -3.510000    45.630000
     300        1        0   -15.799500    -1.759500    47.380500
     301        1        0   -17.550000    -3.510000    49.140000
     302        1        0   -15.799500    -1.759500    50.890500
     303        1        0   -17.550000    -3.510000    52.650000
     304        1        0   -15.799500    -1.759500    54.400500
     305        1        0   -17.550000    -3.510000    56.160000
     306        1        0   -15.799500    -1.759500    57.910500
     307        1        0   -17.550000    -3.510000    59.670000
     308        1        0   -15.799500    -1.759500    61.420500
     309        1        0   -17.550000    -3.510000    63.180000
     310        1        0   -15.799500    -1.759500    64.930500
     311        1        0   -17.550000    -3.510000    66.690000
     312        1        0   -15.799500    -1.759500    68.440500
     313        1        0   -17.550000    -3.510000    70.200000
     314        1        0   -15.799500    -1.759500    71.950500
     315        1        0   -17.550000    -3.510000    73.710000
     316        1        0   -15.799500    -1.759500    75.460500
     317        1        0   -17.550000    -3.510000    77.220000
     318        1        0   -15.799500    -1.759500    78.970500
     319        1        0   -17.550000    -3.510000    80.730000
     320        1        0   -15.799500    -1.759500    82.480500
     321        1        0   -17.550000    -3.510000    84.240000
     322        1        0   -15.799500    -1.759500    85.990500
     323        1        0   -17.550000    -3.510000    87.750000
     324        1        0   -15.799500    -1.759500    89.500500
     325        1        0   -17.550000    -3.510000    91.260000
     326        1        0   -15.799500    -1.759500    93.010500
     327        1        0   -17.550000    -3.510000    94.770000
     328        1        0   -15.799500    -1.759500    96.520500
     329        1        0   -17.550000    -3.510000    98.280000
     330        1        0   -15.799500    -1.759500   100.030500
     331        1        0   -17.550000    -3.510000   101.790000
     332        1        0   -15.799500    -1.759500   103.540500
     333        1        0   -17.550000     0.000000     0.000000
     334        1        0   -15.799500     1.750500     1.750500
     335        1        0   -17.550000     0.000000     3.510000
     336        1        0   -15.799500     1.750500     5.260500
     337        1        0   -17.550000     0.000000     7.020000
     338        1        0   -15.799500     1.750500     8.770500
     339        1        0   -17.550000     0.000000    10.530000
     340        1        0   -15.799500     1.750500    12.280500
     341        1        0   -17.550000     0.000000    14.040000
     342        1        0   -15.799500     1.750500    15.790500
     343        1        0   -17.550000     0.000000    17.550000
     344        1        0   -15.799500     1.750500    19.300500
     345        1        0   -17.550000     0.000000    21.060000
     346        1        0   -15.799500     1.750500    22.810500
     347        1        0   -17.550000     0.000000    24.570000
     348        1        0   -15.799500     1.750500    26.320500
     349        1        0   -17.550000     0.000000    28.080000
     350        1        0   -15.799500     1.750500    29.830500
     351        1        0   -17.550000     0.000000    31.590000
     352        1        0   -15.799500     1.750500    33.340500
     353        1        0   -17.550000     0.000000    35.100000
     354        1        0   -15.799500     1.750500    36.850500
     355        1        0   -17.550000     0.000000    38.610000
     356        1        0   -15.799500     1.750500    40.360500
     357        1        0   -17.550000     0.000000    42.120000
     358        1        0   -15.799500     1.750500    43.870500
     359        1        0   -17.550000     0.000000    45.630000
     360        1        0   -15.799500     1.750500    47.380500
     361        1        0   -17.550000     0.000000    49.140000
     362        1        0   -15.799500     1.750500    50.890500
     363        1        0   -17.550000     0.000000    52.650000
     364        1        0   -15.799500     1.750500    54.400500
     365        1        0   -17.550000     0.000000    56.160000
     366        1        0   -15.799500     1.750500    57.910500
     367        1        0   -17.550000     0.000000    59.670000
     368        1        0   -15.799500     1.750500    61.420500
     369        1        0   -17.550000     0.000000    63.180000
     370        1        0   -15.799500     1.750500    64.930500
     371        1        0   -17.550000     0.000000    66.690000
     372        1        0   -15.799500     1.750500    68.440500
     373        1        0   -17.550000     0.000000    70.200000
     374        1        0   -15.799500     1.750500    71.950500
     375        1        0   -17.550000     0.000000    73.710000
     376        1        0   -15.799500     1.750500    75.460500
     377        1        0   -17.550000     0.000000    77.220000
     378        1        0   -15.799500     1.750500    78.970500
     379        1        0   -17.550000     0.000000    80.730000
     380        1        0   -15.799500     1.750500    82.480500
     381        1        0   -17.550000     0.000000    84.240000
     382        1        0   -15.799500     1.750500    85.990500
     383        1        0   -17.550000     0.000000    87.750000
     384        1        0   -15.799500     1.750500    89.500500
     385        1        0   -17.550000     0.000000    91.260000
     386        1        0   -15.799500     1.750500    93.010500
     387        1        0   -17.550000     0.000000    94.770000
     388        1        0   -15.799500     1.750500    96.520500
     389        1        0   -17.550000     0.000000    98.280000
     390        1        0   -15.799500     1.750500   100.030500
     391        1        0   -17.550000     0.000000   101.790000
     392        1        0   -15.799500     1.750500   103.540500
     393        1        0   -17.550000     3.510000     0.000000
     394        1        0   -15.799500     5.260500     1.750500
     395        1        0   -17.550000     3.510000     3.510000
     396        1        0   -15.799500     5.260500     5.260500
     397        1        0   -17.550000     3.510000     7.020000
     398        1        0   -15.799500     5.260500     8.770500
     399        1        0   -17.550000     3.510000    10.530000
     400        1        0   -15.799500     5.260500    12.280500
     401        1        0   -17.550000     3.510000    14.040000
     402        1        0   -15.799500     5.260500    15.790500
     403        1        0   -17.550000     3.510000    17.550000
     404        1        0   -15.799500     5.260500    19.300500
     405        1        0   -17.550000     3.510000    21.060000
     406        1        0   -15.799500     5.260500    22.810500
     407        1        0   -17.550000     3.510000    24.570000
     408        1        0   -15.799500     5.260500    26.320500
     409        1        0   -17.550000     3.510000    28.080000
     410        1        0   -15.799500     5.260500    29.830500
     411        1        0   -17.550000     3.510000    31.590000
     412        1        0   -15.799500     5.260500    33.340500
     413        1        0   -17.550000     3.510000    35.100000
     414        1        0   -15.799500     5.260500    36.850500
     415        1        0   -17.550000     3.510000    38.610000
     416        1        0   -15.799500     5.260500    40.360500
     417        1        0   -17.550000     3.510000    42.120000
     418        1        0   -15.799500     5.260500    43.870500
     419        1        0   -17.550000     3.510000    45.630000
     420        1        0   -15.799500     5.260500    47.380500
     421        1        0   -17.550000     3.510000    49.140000
     422        1        0   -15.799500     5.260500    50.890500
     423        1        0   -17.550000     3.510000    52.650000
     424        1        0   -15.799500     5.260500    54.400500
     425        1        0   -17.550000     3.510000    56.160000
     426        1        0   -15.799500     5.260500    57.910500
     427        1        0   -17.550000     3.510000    59.670000
     428        1        0   -15.799500     5.260500    61.420500
     429        1        0   -17.550000     3.510000    63.180000
     430        1        0   -15.799500     5.260500    64.930500
     431        1        0   -17.550000     3.510000    66.690000
     432        1        0   -15.799500     5.260500    68.440500
     433        1        0   -17.550000     3.510000    70.200000
     434        1        0   -15.799500     5.260500    71.950500
     435        1        0   -17.550000     3.510000    73.710000
     436        1        0   -15.799500     5.260500    75.460500
     437        1        0   -17.550000     3.510000    77.220000
     438        1        0   -15.799500     5.260500    78.970500
     439        1        0   -17.550000     3.510000    80.730000
     440        1        0   -15.799500     5.260500    82.480500
     441        1        0   -17.550000     3.510000    84.240000
     442        1        0   -15.799500     5.260500    85.990500
     443        1        0   -17.550000     3.510000    87.750000
     444        1        0   -15.799500     5.260500    89.500500
     445        1        0   -17.550000     3.510000    91.260000
     446        1        0   -15.799500     5.260500    93.010500
     447        1        0   -17.550000     3.510000    94.770000
     448        1        0   -15.799500     5.260500    96.520500
     449        1        0   -17.550000     3.510000    98.280000
     450        1        0   -15.799500     5.260500   100.030500
     451        1        0   -17.550000     3.510000   101.790000