Configuration for Li nanopillar Bulk Crystal

15210 atoms
1 atom types
-100 200 xlo xhi
-100 200 ylo yhi
0 105.3 zlo zhi

Atoms
Position for Li nanopillar atoms
1 1 0    33.340500    54.400500     1.750500
2 1 0    33.340500    54.400500     5.260500
3 1 0    33.340500    54.400500     8.770500
4 1 0    33.340500    54.400500    12.280500
5 1 0    33.340500    54.400500    15.790500
6 1 0    33.340500    54.400500    19.300500
7 1 0    33.340500    54.400500    22.810500
8 1 0    33.340500    54.400500    26.320500
9 1 0    33.340500    54.400500    29.830500
10 1 0    33.340500    54.400500    33.340500
11 1 0    33.340500    54.400500    36.850500
12 1 0    33.340500    54.400500    40.360500
13 1 0    33.340500    54.400500    43.870500
14 1 0    33.340500    54.400500    47.380500
15 1 0    33.340500    54.400500    50.890500
16 1 0    33.340500    54.400500    54.400500
17 1 0    33.340500    54.400500    57.910500
18 1 0    33.340500    54.400500    61.420500
19 1 0    33.340500    54.400500    64.930500
20 1 0    33.340500    54.400500    68.440500
21 1 0    33.340500    54.400500    71.950500
22 1 0    33.340500    54.400500    75.460500
23 1 0    33.340500    54.400500    78.970500
24 1 0    33.340500    54.400500    82.480500
25 1 0    33.340500    54.400500    85.990500
26 1 0    33.340500    54.400500    89.500500
27 1 0    33.340500    54.400500    93.010500
28 1 0    33.340500    54.400500    96.520500
29 1 0    33.340500    54.400500   100.030500
30 1 0    33.340500    54.400500   103.540500
31 1 0    33.340500    57.910500     1.750500
32 1 0    33.340500    57.910500     5.260500
33 1 0    33.340500    57.910500     8.770500
34 1 0    33.340500    57.910500    12.280500
35 1 0    33.340500    57.910500    15.790500
36 1 0    33.340500    57.910500    19.300500
37 1 0    33.340500    57.910500    22.810500
38 1 0    33.340500    57.910500    26.320500
39 1 0    33.340500    57.910500    29.830500
40 1 0    33.340500    57.910500    33.340500
41 1 0    33.340500    57.910500    36.850500
42 1 0    33.340500    57.910500    40.360500
43 1 0    33.340500    57.910500    43.870500
44 1 0    33.340500    57.910500    47.380500
45 1 0    33.340500    57.910500    50.890500
46 1 0    33.340500    57.910500    54.400500
47 1 0    33.340500    57.910500    57.910500
48 1 0    33.340500    57.910500    61.420500
49 1 0    33.340500    57.910500    64.930500
50 1 0    33.340500    57.910500    68.440500
51 1 0    33.340500    57.910500    71.950500
52 1 0    33.340500    57.910500    75.460500
53 1 0    33.340500    57.910500    78.970500
54 1 0    33.340500    57.910500    82.480500
55 1 0    33.340500    57.910500    85.990500
56 1 0    33.340500    57.910500    89.500500
57 1 0    33.340500    57.910500    93.010500
58 1 0    33.340500    57.910500    96.520500
59 1 0    33.340500    57.910500   100.030500
60 1 0    33.340500    57.910500   103.540500
61 1 0    33.340500    61.420500     1.750500
62 1 0    33.340500    61.420500     5.260500
63 1 0    33.340500    61.420500     8.770500
64 1 0    33.340500    61.420500    12.280500
65 1 0    33.340500    61.420500    15.790500
66 1 0    33.340500    61.420500    19.300500
67 1 0    33.340500    61.420500    22.810500
68 1 0    33.340500    61.420500    26.320500
69 1 0    33.340500    61.420500    29.830500
70 1 0    33.340500    61.420500    33.340500
71 1 0    33.340500    61.420500    36.850500
72 1 0    33.340500    61.420500    40.360500
73 1 0    33.340500    61.420500    43.870500
74 1 0    33.340500    61.420500    47.380500
75 1 0    33.340500    61.420500    50.890500
76 1 0    33.340500    61.420500    54.400500
77 1 0    33.340500    61.420500    57.910500
78 1 0    33.340500    61.420500    61.420500
79 1 0    33.340500    61.420500    64.930500
80 1 0    33.340500    61.420500    68.440500
81 1 0    33.340500    61.420500    71.950500
82 1 0    33.340500    61.420500    75.460500
83 1 0    33.340500    61.420500    78.970500
84 1 0    33.340500    61.420500    82.480500
85 1 0    33.340500    61.420500    85.990500
86 1 0    33.340500    61.420500    89.500500
87 1 0    33.340500    61.420500    93.010500
88 1 0    33.340500    61.420500    96.520500
89 1 0    33.340500    61.420500   100.030500
90 1 0    33.340500    61.420500   103.540500
91 1 0    31.590000    63.180000     0.000000
92 1 0    33.340500    64.930500     1.750500
93 1 0    31.590000    63.180000     3.510000
94 1 0    33.340500    64.930500     5.260500
95 1 0    31.590000    63.180000     7.020000
96 1 0    33.340500    64.930500     8.770500
97 1 0    31.590000    63.180000    10.530000
98 1 0    33.340500    64.930500    12.280500
99 1 0    31.590000    63.180000    14.040000
100 1 0    33.340500    64.930500    15.790500
101 1 0    31.590000    63.180000    17.550000
102 1 0    33.340500    64.930500    19.300500
103 1 0    31.590000    63.180000    21.060000
104 1 0    33.340500    64.930500    22.810500
105 1 0    31.590000    63.180000    24.570000
106 1 0    33.340500    64.930500    26.320500
107 1 0    31.590000    63.180000    28.080000
108 1 0    33.340500    64.930500    29.830500
109 1 0    31.590000    63.180000    31.590000
110 1 0    33.340500    64.930500    33.340500
111 1 0    31.590000    63.180000    35.100000
112 1 0    33.340500    64.930500    36.850500
113 1 0    31.590000    63.180000    38.610000
114 1 0    33.340500    64.930500    40.360500
115 1 0    31.590000    63.180000    42.120000
116 1 0    33.340500    64.930500    43.870500
117 1 0    31.590000    63.180000    45.630000
118 1 0    33.340500    64.930500    47.380500
119 1 0    31.590000    63.180000    49.140000
120 1 0    33.340500    64.930500    50.890500
121 1 0    31.590000    63.180000    52.650000
122 1 0    33.340500    64.930500    54.400500
123 1 0    31.590000    63.180000    56.160000
124 1 0    33.340500    64.930500    57.910500
125 1 0    31.590000    63.180000    59.670000
126 1 0    33.340500    64.930500    61.420500
127 1 0    31.590000    63.180000    63.180000
128 1 0    33.340500    64.930500    64.930500
129 1 0    31.590000    63.180000    66.690000
130 1 0    33.340500    64.930500    68.440500
131 1 0    31.590000    63.180000    70.200000
132 1 0    33.340500    64.930500    71.950500
133 1 0    31.590000    63.180000    73.710000
134 1 0    33.340500    64.930500    75.460500
135 1 0    31.590000    63.180000    77.220000
136 1 0    33.340500    64.930500    78.970500
137 1 0    31.590000    63.180000    80.730000
138 1 0    33.340500    64.930500    82.480500
139 1 0    31.590000    63.180000    84.240000
140 1 0    33.340500    64.930500    85.990500
141 1 0    31.590000    63.180000    87.750000
142 1 0    33.340500    64.930500    89.500500
143 1 0    31.590000    63.180000    91.260000
144 1 0    33.340500    64.930500    93.010500
145 1 0    31.590000    63.180000    94.770000
146 1 0    33.340500    64.930500    96.520500
147 1 0    31.590000    63.180000    98.280000
148 1 0    33.340500    64.930500   100.030500
149 1 0    31.590000    63.180000   101.790000
150 1 0    33.340500    64.930500   103.540500
151 1 0    33.340500    68.440500     1.750500
152 1 0    33.340500    68.440500     5.260500
153 1 0    33.340500    68.440500     8.770500
154 1 0    33.340500    68.440500    12.280500
155 1 0    33.340500    68.440500    15.790500
156 1 0    33.340500    68.440500    19.300500
157 1 0    33.340500    68.440500    22.810500
158 1 0    33.340500    68.440500    26.320500
159 1 0    33.340500    68.440500    29.830500
160 1 0    33.340500    68.440500    33.340500
161 1 0    33.340500    68.440500    36.850500
162 1 0    33.340500    68.440500    40.360500
163 1 0    33.340500    68.440500    43.870500
164 1 0    33.340500    68.440500    47.380500
165 1 0    33.340500    68.440500    50.890500
166 1 0    33.340500    68.440500    54.400500
167 1 0    33.340500    68.440500    57.910500
168 1 0    33.340500    68.440500    61.420500
169 1 0    33.340500    68.440500    64.930500
170 1 0    33.340500    68.440500    68.440500
171 1 0    33.340500    68.440500    71.950500
172 1 0    33.340500    68.440500    75.460500
173 1 0    33.340500    68.440500    78.970500
174 1 0    33.340500    68.440500    82.480500
175 1 0    33.340500    68.440500    85.990500
176 1 0    33.340500    68.440500    89.500500
177 1 0    33.340500    68.440500    93.010500
178 1 0    33.340500    68.440500    96.520500
179 1 0    33.340500    68.440500   100.030500
180 1 0    33.340500    68.440500   103.540500
181 1 0    33.340500    71.950500     1.750500
182 1 0    33.340500    71.950500     5.260500
183 1 0    33.340500    71.950500     8.770500
184 1 0    33.340500    71.950500    12.280500
185 1 0    33.340500    71.950500    15.790500
186 1 0    33.340500    71.950500    19.300500
187 1 0    33.340500    71.950500    22.810500
188 1 0    33.340500    71.950500    26.320500
189 1 0    33.340500    71.950500    29.830500
190 1 0    33.340500    71.950500    33.340500
191 1 0    33.340500    71.950500    36.850500
192 1 0    33.340500    71.950500    40.360500
193 1 0    33.340500    71.950500    43.870500
194 1 0    33.340500    71.950500    47.380500
195 1 0    33.340500    71.950500    50.890500
196 1 0    33.340500    71.950500    54.400500
197 1 0    33.340500    71.950500    57.910500
198 1 0    33.340500    71.950500    61.420500
199 1 0    33.340500    71.950500    64.930500
200 1 0    33.340500    71.950500    68.440500
201 1 0    33.340500    71.950500    71.950500
202 1 0    33.340500    71.950500    75.460500
203 1 0    33.340500    71.950500    78.970500
204 1 0    33.340500    71.950500    82.480500
205 1 0    33.340500    71.950500    85.990500
206 1 0    33.340500    71.950500    89.500500
207 1 0    33.340500    71.950500    93.010500
208 1 0    33.340500    71.950500    96.520500
209 1 0    33.340500    71.950500   100.030500
210 1 0    33.340500    71.950500   103.540500
211 1 0    36.850500    47.380500     1.750500
212 1 0    36.850500    47.380500     5.260500
213 1 0    36.850500    47.380500     8.770500
214 1 0    36.850500    47.380500    12.280500
215 1 0    36.850500    47.380500    15.790500
216 1 0    36.850500    47.380500    19.300500
217 1 0    36.850500    47.380500    22.810500
218 1 0    36.850500    47.380500    26.320500
219 1 0    36.850500    47.380500    29.830500
220 1 0    36.850500    47.380500    33.340500
221 1 0    36.850500    47.380500    36.850500
222 1 0    36.850500    47.380500    40.360500
223 1 0    36.850500    47.380500    43.870500
224 1 0    36.850500    47.380500    47.380500
225 1 0    36.850500    47.380500    50.890500
226 1 0    36.850500    47.380500    54.400500
227 1 0    36.850500    47.380500    57.910500
228 1 0    36.850500    47.380500    61.420500
229 1 0    36.850500    47.380500    64.930500
230 1 0    36.850500    47.380500    68.440500
231 1 0    36.850500    47.380500    71.950500
232 1 0    36.850500    47.380500    75.460500
233 1 0    36.850500    47.380500    78.970500
234 1 0    36.850500    47.380500    82.480500
235 1 0    36.850500    47.380500    85.990500
236 1 0    36.850500    47.380500    89.500500
237 1 0    36.850500    47.380500    93.010500
238 1 0    36.850500    47.380500    96.520500
239 1 0    36.850500    47.380500   100.030500
240 1 0    36.850500    47.380500   103.540500
241 1 0    35.100000    49.140000     0.000000
242 1 0    36.850500    50.890500     1.750500
243 1 0    35.100000    49.140000     3.510000
244 1 0    36.850500    50.890500     5.260500
245 1 0    35.100000    49.140000     7.020000
246 1 0    36.850500    50.890500     8.770500
247 1 0    35.100000    49.140000    10.530000
248 1 0    36.850500    50.890500    12.280500
249 1 0    35.100000    49.140000    14.040000
250 1 0    36.850500    50.890500    15.790500
251 1 0    35.100000    49.140000    17.550000
252 1 0    36.850500    50.890500    19.300500
253 1 0    35.100000    49.140000    21.060000
254 1 0    36.850500    50.890500    22.810500
255 1 0    35.100000    49.140000    24.570000
256 1 0    36.850500    50.890500    26.320500
257 1 0    35.100000    49.140000    28.080000
258 1 0    36.850500    50.890500    29.830500
259 1 0    35.100000    49.140000    31.590000
260 1 0    36.850500    50.890500    33.340500
261 1 0    35.100000    49.140000    35.100000
262 1 0    36.850500    50.890500    36.850500
263 1 0    35.100000    49.140000    38.610000
264 1 0    36.850500    50.890500    40.360500
265 1 0    35.100000    49.140000    42.120000
266 1 0    36.850500    50.890500    43.870500
267 1 0    35.100000    49.140000    45.630000
268 1 0    36.850500    50.890500    47.380500
269 1 0    35.100000    49.140000    49.140000
270 1 0    36.850500    50.890500    50.890500
271 1 0    35.100000    49.140000    52.650000
272 1 0    36.850500    50.890500    54.400500
273 1 0    35.100000    49.140000    56.160000
274 1 0    36.850500    50.890500    57.910500
275 1 0    35.100000    49.140000    59.670000
276 1 0    36.850500    50.890500    61.420500
277 1 0    35.100000    49.140000    63.180000
278 1 0    36.850500    50.890500    64.930500
279 1 0    35.100000    49.140000    66.690000
280 1 0    36.850500    50.890500    68.440500
281 1 0    35.100000    49.140000    70.200000
282 1 0    36.850500    50.890500    71.950500
283 1 0    35.100000    49.140000    73.710000
284 1 0    36.850500    50.890500    75.460500
285 1 0    35.100000    49.140000    77.220000
286 1 0    36.850500    50.890500    78.970500
287 1 0    35.100000    49.140000    80.730000
288 1 0    36.850500    50.890500    82.480500
289 1 0    35.100000    49.140000    84.240000
290 1 0    36.850500    50.890500    85.990500
291 1 0    35.100000    49.140000    87.750000
292 1 0    36.850500    50.890500    89.500500
293 1 0    35.100000    49.140000    91.260000
294 1 0    36.850500    50.890500    93.010500
295 1 0    35.100000    49.140000    94.770000
296 1 0    36.850500    50.890500    96.520500
297 1 0    35.100000    49.140000    98.280000
298 1 0    36.850500    50.890500   100.030500
299 1 0    35.100000    49.140000   101.790000
300 1 0    36.850500    50.890500   103.540500
301 1 0    35.100000    52.650000     0.000000
302 1 0    36.850500    54.400500     1.750500
303 1 0    35.100000    52.650000     3.510000
304 1 0    36.850500    54.400500     5.260500
305 1 0    35.100000    52.650000     7.020000
306 1 0    36.850500    54.400500     8.770500
307 1 0    35.100000    52.650000    10.530000
308 1 0    36.850500    54.400500    12.280500
309 1 0    35.100000    52.650000    14.040000
310 1 0    36.850500    54.400500    15.790500
311 1 0    35.100000    52.650000    17.550000
312 1 0    36.850500    54.400500    19.300500
313 1 0    35.100000    52.650000    21.060000
314 1 0    36.850500    54.400500    22.810500
315 1 0    35.100000    52.650000    24.570000
316 1 0    36.850500    54.400500    26.320500
317 1 0    35.100000    52.650000    28.080000
318 1 0    36.850500    54.400500    29.830500
319 1 0    35.100000    52.650000    31.590000
320 1 0    36.850500    54.400500    33.340500
321 1 0    35.100000    52.650000    35.100000
322 1 0    36.850500    54.400500    36.850500
323 1 0    35.100000    52.650000    38.610000
324 1 0    36.850500    54.400500    40.360500
325 1 0    35.100000    52.650000    42.120000
326 1 0    36.850500    54.400500    43.870500
327 1 0    35.100000    52.650000    45.630000
328 1 0    36.850500    54.400500    47.380500
329 1 0    35.100000    52.650000    49.140000
330 1 0    36.850500    54.400500    50.890500
331 1 0    35.100000    52.650000    52.650000
332 1 0    36.850500    54.400500    54.400500
333 1 0    35.100000    52.650000    56.160000
334 1 0    36.850500    54.400500    57.910500
335 1 0    35.100000    52.650000    59.670000
336 1 0    36.850500    54.400500    61.420500
337 1 0    35.100000    52.650000    63.180000
338 1 0    36.850500    54.400500    64.930500
339 1 0    35.100000    52.650000    66.690000
340 1 0    36.850500    54.400500    68.440500
341 1 0    35.100000    52.650000    70.200000
342 1 0    36.850500    54.400500    71.950500
343 1 0    35.100000    52.650000    73.710000
344 1 0    36.850500    54.400500    75.460500
345 1 0    35.100000    52.650000    77.220000
346 1 0    36.850500    54.400500    78.970500
347 1 0    35.100000    52.650000    80.730000
348 1 0    36.850500    54.400500    82.480500
349 1 0    35.100000    52.650000    84.240000
350 1 0    36.850500    54.400500    85.990500
351 1 0    35.100000    52.650000    87.750000
352 1 0    36.850500    54.400500    89.500500
353 1 0    35.100000    52.650000    91.260000
354 1 0    36.850500    54.400500    93.010500
355 1 0    35.100000    52.650000    94.770000
356 1 0    36.850500    54.400500    96.520500
357 1 0    35.100000    52.650000    98.280000
358 1 0    36.850500    54.400500   100.030500
359 1 0    35.100000    52.650000   101.790000
360 1 0    36.850500    54.400500   103.540500
361 1 0    35.100000    56.160000     0.000000
362 1 0    36.850500    57.910500     1.750500
363 1 0    35.100000    56.160000     3.510000
364 1 0    36.850500    57.910500     5.260500
365 1 0    35.100000    56.160000     7.020000
366 1 0    36.850500    57.910500     8.770500
367 1 0    35.100000    56.160000    10.530000
368 1 0    36.850500    57.910500    12.280500
369 1 0    35.100000    56.160000    14.040000
370 1 0    36.850500    57.910500    15.790500
371 1 0    35.100000    56.160000    17.550000
372 1 0    36.850500    57.910500    19.300500
373 1 0    35.100000    56.160000    21.060000
374 1 0    36.850500    57.910500    22.810500
375 1 0    35.100000    56.160000    24.570000
376 1 0    36.850500    57.910500    26.320500
377 1 0    35.100000    56.160000    28.080000
378 1 0    36.850500    57.910500    29.830500
379 1 0    35.100000    56.160000    31.590000
380 1 0    36.850500    57.910500    33.340500
381 1 0    35.100000    56.160000    35.100000
382 1 0    36.850500    57.910500    36.850500
383 1 0    35.100000    56.160000    38.610000
384 1 0    36.850500    57.910500    40.360500
385 1 0    35.100000    56.160000    42.120000
386 1 0    36.850500    57.910500    43.870500
387 1 0    35.100000    56.160000    45.630000
388 1 0    36.850500    57.910500    47.380500
389 1 0    35.100000    56.160000    49.140000
390 1 0    36.850500    57.910500    50.890500
391 1 0    35.100000    56.160000    52.650000
392 1 0    36.850500    57.910500    54.400500
393 1 0    35.100000    56.160000    56.160000
394 1 0    36.850500    57.910500    57.910500
395 1 0    35.100000    56.160000    59.670000
396 1 0    36.850500    57.910500    61.420500
397 1 0    35.100000    56.160000    63.180000
398 1 0    36.850500    57.910500    64.930500
399 1 0    35.100000    56.160000    66.690000
400 1 0    36.850500    57.910500    68.440500
401 1 0    35.100000    56.160000    70.200000
402 1 0    36.850500    57.910500    71.950500
403 1 0    35.100000    56.160000    73.710000
404 1 0    36.850500    57.910500    75.460500
405 1 0    35.100000    56.160000    77.220000
406 1 0    36.850500    57.910500    78.970500
407 1 0    35.100000    56.160000    80.730000
408 1 0    36.850500    57.910500    82.480500
409 1 0    35.100000    56.160000    84.240000
410 1 0    36.850500    57.910500    85.990500
411 1 0    35.100000    56.160000    87.750000
412 1 0    36.850500    57.910500    89.500500
413 1 0    35.100000    56.160000    91.260000
414 1 0    36.850500    57.910500    93.010500
415 1 0    35.100000    56.160000    94.770000
416 1 0    36.850500    57.910500    96.520500
417 1 0    35.100000    56.160000    98.280000
418 1 0    36.850500    57.910500   100.030500
419 1 0    35.100000    56.160000   101.790000
420 1 0    36.850500    57.910500   103.540500
421 1 0    35.100000    59.670000     0.000000
422 1 0    36.850500    61.420500     1.750500
423 1 0    35.100000    59.670000     3.510000
424 1 0    36.850500    61.420500     5.260500
425 1 0    35.100000    59.670000     7.020000
426 1 0    36.850500    61.420500     8.770500
427 1 0    35.100000    59.670000    10.530000
428 1 0    36.850500    61.420500    12.280500
429 1 0    35.100000    59.670000    14.040000
430 1 0    36.850500    61.420500    15.790500
431 1 0    35.100000    59.670000    17.550000
432 1 0    36.850500    61.420500    19.300500
433 1 0    35.100000    59.670000    21.060000
434 1 0    36.850500    61.420500    22.810500
435 1 0    35.100000    59.670000    24.570000
436 1 0    36.850500    61.420500    26.320500
437 1 0    35.100000    59.670000    28.080000
438 1 0    36.850500    61.420500    29.830500
439 1 0    35.100000    59.670000    31.590000
440 1 0    36.850500    61.420500    33.340500
441 1 0    35.100000    59.670000    35.100000
442 1 0    36.850500    61.420500    36.850500
443 1 0    35.100000    59.670000    38.610000
444 1 0    36.850500    61.420500    40.360500
445 1 0    35.100000    59.670000    42.120000
446 1 0    36.850500    61.420500    43.870500
447 1 0    35.100000    59.670000    45.630000
448 1 0    36.850500    61.420500    47.380500
449 1 0    35.100000    59.670000    49.140000
450 1 0    36.850500    61.420500    50.890500
451 1 0    35.100000    59.670000    52.650000
452 1 0    36.850500    61.420500    54.400500
453 1 0    35.100000    59.670000    56.160000
454 1 0    36.850500    61.420500    57.910500
455 1 0    35.100000    59.670000    59.670000
456 1 0    36.850500    61.420500    61.420500
457 1 0    35.100000    59.670000    63.180000
458 1 0    36.850500    61.420500    64.930500
459 1 0    35.100000    59.670000    66.690000
460 1 0    36.850500    61.420500    68.440500
461 1 0    35.100000    59.670000    70.200000
462 1 0    36.850500    61.420500    71.950500
463 1 0    35.100000    59.670000    73.710000
464 1 0    36.850500    61.420500    75.460500
465 1 0    35.100000    59.670000    77.220000
466 1 0    36.850500    61.420500    78.970500
467 1 0    35.100000    59.670000    80.730000
468 1 0    36.850500    61.420500    82.480500
469 1 0    35.100000    59.670000    84.240000
470 1 0    36.850500    61.420500    85.990500
471 1 0    35.100000    59.670000    87.750000
472 1 0    36.850500    61.420500    89.500500
473 1 0    35.100000    59.670000    91.260000
474 1 0    36.850500    61.420500    93.010500
475 1 0    35.100000    59.670000    94.770000
476 1 0    36.850500    61.420500    96.520500
477 1 0    35.100000    59.670000    98.280000
478 1 0    36.850500    61.420500   100.030500
479 1 0    35.100000    59.670000   101.790000
480 1 0    36.850500    61.420500   103.540500
481 1 0    35.100000    63.180000     0.000000
482 1 0    36.850500    64.930500     1.750500
483 1 0    35.100000    63.180000     3.510000
484 1 0    36.850500    64.930500     5.260500
485 1 0    35.100000    63.180000     7.020000
486 1 0    36.850500    64.930500     8.770500
487 1 0    35.100000    63.180000    10.530000
488 1 0    36.850500    64.930500    12.280500
489 1 0    35.100000    63.180000    14.040000
490 1 0    36.850500    64.930500    15.790500
491 1 0    35.100000    63.180000    17.550000
492 1 0    36.850500    64.930500    19.300500
493 1 0    35.100000    63.180000    21.060000
494 1 0    36.850500    64.930500    22.810500
495 1 0    35.100000    63.180000    24.570000
496 1 0    36.850500    64.930500    26.320500
497 1 0    35.100000    63.180000    28.080000
498 1 0    36.850500    64.930500    29.830500
499 1 0    35.100000    63.180000    31.590000
500 1 0    36.850500    64.930500    33.340500
501 1 0    35.100000    63.180000    35.100000
502 1 0    36.850500    64.930500    36.850500
503 1 0    35.100000    63.180000    38.610000
504 1 0    36.850500    64.930500    40.360500
505 1 0    35.100000    63.180000    42.120000
506 1 0    36.850500    64.930500    43.870500
507 1 0    35.100000    63.180000    45.630000
508 1 0    36.850500    64.930500    47.380500
509 1 0    35.100000    63.180000    49.140000
510 1 0    36.850500    64.930500    50.890500
511 1 0    35.100000    63.180000    52.650000
512 1 0    36.850500    64.930500    54.400500
513 1 0    35.100000    63.180000    56.160000
514 1 0    36.850500    64.930500    57.910500
515 1 0    35.100000    63.180000    59.670000
516 1 0    36.850500    64.930500    61.420500
517 1 0    35.100000    63.180000    63.180000
518 1 0    36.850500    64.930500    64.930500
519 1 0    35.100000    63.180000    66.690000
520 1 0    36.850500    64.930500    68.440500
521 1 0    35.100000    63.180000    70.200000
522 1 0    36.850500    64.930500    71.950500
523 1 0    35.100000    63.180000    73.710000
524 1 0    36.850500    64.930500    75.460500
525 1 0    35.100000    63.180000    77.220000
526 1 0    36.850500    64.930500    78.970500
527 1 0    35.100000    63.180000    80.730000
528 1 0    36.850500    64.930500    82.480500
529 1 0    35.100000    63.180000    84.240000
530 1 0    36.850500    64.930500    85.990500
531 1 0    35.100000    63.180000    87.750000
532 1 0    36.850500    64.930500    89.500500
533 1 0    35.100000    63.180000    91.260000
534 1 0    36.850500    64.930500    93.010500
535 1 0    35.100000    63.180000    94.770000
536 1 0    36.850500    64.930500    96.520500
537 1 0    35.100000    63.180000    98.280000
538 1 0    36.850500    64.930500   100.030500
539 1 0    35.100000    63.180000   101.790000
540 1 0    36.850500    64.930500   103.540500
541 1 0    35.100000    66.690000     0.000000
542 1 0    36.850500    68.440500     1.750500
543 1 0    35.100000    66.690000     3.510000
544 1 0    36.850500    68.440500     5.260500
545 1 0    35.100000    66.690000     7.020000
546 1 0    36.850500    68.440500     8.770500
547 1 0    35.100000    66.690000    10.530000
548 1 0    36.850500    68.440500    12.280500
549 1 0    35.100000    66.690000    14.040000
550 1 0    36.850500    68.440500    15.790500
551 1 0    35.100000    66.690000    17.550000
552 1 0    36.850500    68.440500    19.300500
553 1 0    35.100000    66.690000    21.060000
554 1 0    36.850500    68.440500    22.810500
555 1 0    35.100000    66.690000    24.570000
556 1 0    36.850500    68.440500    26.320500
557 1 0    35.100000    66.690000    28.080000
558 1 0    36.850500    68.440500    29.830500
559 1 0    35.100000    66.690000    31.590000
560 1 0    36.850500    68.440500    33.340500
561 1 0    35.100000    66.690000    35.100000
562 1 0    36.850500    68.440500    36.850500
563 1 0    35.100000    66.690000    38.610000
564 1 0    36.850500    68.440500    40.360500
565 1 0    35.100000    66.690000    42.120000
566 1 0    36.850500    68.440500    43.870500
567 1 0    35.100000    66.690000    45.630000
568 1 0    36.850500    68.440500    47.380500
569 1 0    35.100000    66.690000    49.140000
570 1 0    36.850500    68.440500    50.890500
571 1 0    35.100000    66.690000    52.650000
572 1 0    36.850500    68.440500    54.400500
573 1 0    35.100000    66.690000    56.160000
574 1 0    36.850500    68.440500    57.910500
575 1 0    35.100000    66.690000    59.670000
576 1 0    36.850500    68.440500    61.420500
577 1 0    35.100000    66.690000    63.180000
578 1 0    36.850500    68.440500    64.930500
579 1 0    35.100000    66.690000    66.690000
580 1 0    36.850500    68.440500    68.440500
581 1 0    35.100000    66.690000    70.200000
582 1 0    36.850500    68.440500    71.950500
583 1 0    35.100000    66.690000    73.710000
584 1 0    36.850500    68.440500    75.460500
585 1 0    35.100000    66.690000    77.220000
586 1 0    36.850500    68.440500    78.970500
587 1 0    35.100000    66.690000    80.730000
588 1 0    36.850500    68.440500    82.480500
589 1 0    35.100000    66.690000    84.240000
590 1 0    36.850500    68.440500    85.990500
591 1 0    35.100000    66.690000    87.750000
592 1 0    36.850500    68.440500    89.500500
593 1 0    35.100000    66.690000    91.260000
594 1 0    36.850500    68.440500    93.010500
595 1 0    35.100000    66.690000    94.770000
596 1 0    36.850500    68.440500    96.520500
597 1 0    35.100000    66.690000    98.280000
598 1 0    36.850500    68.440500   100.030500
599 1 0    35.100000    66.690000   101.790000
600 1 0    36.850500    68.440500   103.540500
601 1 0    35.100000    70.200000     0.000000
602 1 0    36.850500    71.950500     1.750500
603 1 0    35.100000    70.200000     3.510000
604 1 0    36.850500    71.950500     5.260500
605 1 0    35.100000    70.200000     7.020000
606 1 0    36.850500    71.950500     8.770500
607 1 0    35.100000    70.200000    10.530000
608 1 0    36.850500    71.950500    12.280500
609 1 0    35.100000    70.200000    14.040000
610 1 0    36.850500    71.950500    15.790500
611 1 0    35.100000    70.200000    17.550000
612 1 0    36.850500    71.950500    19.300500
613 1 0    35.100000    70.200000    21.060000
614 1 0    36.850500    71.950500    22.810500
615 1 0    35.100000    70.200000    24.570000
616 1 0    36.850500    71.950500    26.320500
617 1 0    35.100000    70.200000    28.080000
618 1 0    36.850500    71.950500    29.830500
619 1 0    35.100000    70.200000    31.590000
620 1 0    36.850500    71.950500    33.340500
621 1 0    35.100000    70.200000    35.100000
622 1 0    36.850500    71.950500    36.850500
623 1 0    35.100000    70.200000    38.610000
624 1 0    36.850500    71.950500    40.360500
625 1 0    35.100000    70.200000    42.120000
626 1 0    36.850500    71.950500    43.870500
627 1 0    35.100000    70.200000    45.630000
628 1 0    36.850500    71.950500    47.380500
629 1 0    35.100000    70.200000    49.140000
630 1 0    36.850500    71.950500    50.890500
631 1 0    35.100000    70.200000    52.650000
632 1 0    36.850500    71.950500    54.400500
633 1 0    35.100000    70.200000    56.160000
634 1 0    36.850500    71.950500    57.910500
635 1 0    35.100000    70.200000    59.670000
636 1 0    36.850500    71.950500    61.420500
637 1 0    35.100000    70.200000    63.180000