Configuration for Li nanopillar Bulk Crystal

1830 atoms
1 atom types
0 42.12 xlo xhi
0 42.12 ylo yhi
0 157.95 zlo zhi

Atoms
Position for Li nanopillar atoms
1 1 0    12.280500    15.790500     1.750500
2 1 0    12.280500    15.790500     5.260500
3 1 0    12.280500    15.790500     8.770500
4 1 0    12.280500    15.790500    12.280500
5 1 0    12.280500    15.790500    15.790500
6 1 0    12.280500    15.790500    19.300500
7 1 0    12.280500    15.790500    22.810500
8 1 0    12.280500    15.790500    26.320500
9 1 0    12.280500    15.790500    29.830500
10 1 0    12.280500    15.790500    33.340500
11 1 0    12.280500    15.790500    36.850500
12 1 0    12.280500    15.790500    40.360500
13 1 0    12.280500    15.790500    43.870500
14 1 0    12.280500    15.790500    47.380500
15 1 0    12.280500    15.790500    50.890500
16 1 0    12.280500    15.790500    54.400500
17 1 0    12.280500    15.790500    57.910500
18 1 0    12.280500    15.790500    61.420500
19 1 0    12.280500    15.790500    64.930500
20 1 0    12.280500    15.790500    68.440500
21 1 0    12.280500    15.790500    71.950500
22 1 0    12.280500    15.790500    75.460500
23 1 0    12.280500    15.790500    78.970500
24 1 0    12.280500    15.790500    82.480500
25 1 0    12.280500    15.790500    85.990500
26 1 0    12.280500    15.790500    89.500500
27 1 0    12.280500    15.790500    93.010500
28 1 0    12.280500    15.790500    96.520500
29 1 0    12.280500    15.790500   100.030500
30 1 0    12.280500    15.790500   103.540500
31 1 0    12.280500    19.300500     1.750500
32 1 0    12.280500    19.300500     5.260500
33 1 0    12.280500    19.300500     8.770500
34 1 0    12.280500    19.300500    12.280500
35 1 0    12.280500    19.300500    15.790500
36 1 0    12.280500    19.300500    19.300500
37 1 0    12.280500    19.300500    22.810500
38 1 0    12.280500    19.300500    26.320500
39 1 0    12.280500    19.300500    29.830500
40 1 0    12.280500    19.300500    33.340500
41 1 0    12.280500    19.300500    36.850500
42 1 0    12.280500    19.300500    40.360500
43 1 0    12.280500    19.300500    43.870500
44 1 0    12.280500    19.300500    47.380500
45 1 0    12.280500    19.300500    50.890500
46 1 0    12.280500    19.300500    54.400500
47 1 0    12.280500    19.300500    57.910500
48 1 0    12.280500    19.300500    61.420500
49 1 0    12.280500    19.300500    64.930500
50 1 0    12.280500    19.300500    68.440500
51 1 0    12.280500    19.300500    71.950500
52 1 0    12.280500    19.300500    75.460500
53 1 0    12.280500    19.300500    78.970500
54 1 0    12.280500    19.300500    82.480500
55 1 0    12.280500    19.300500    85.990500
56 1 0    12.280500    19.300500    89.500500
57 1 0    12.280500    19.300500    93.010500
58 1 0    12.280500    19.300500    96.520500
59 1 0    12.280500    19.300500   100.030500
60 1 0    12.280500    19.300500   103.540500
61 1 0    10.530000    21.060000     0.000000
62 1 0    12.280500    22.810500     1.750500
63 1 0    10.530000    21.060000     3.510000
64 1 0    12.280500    22.810500     5.260500
65 1 0    10.530000    21.060000     7.020000
66 1 0    12.280500    22.810500     8.770500
67 1 0    10.530000    21.060000    10.530000
68 1 0    12.280500    22.810500    12.280500
69 1 0    10.530000    21.060000    14.040000
70 1 0    12.280500    22.810500    15.790500
71 1 0    10.530000    21.060000    17.550000
72 1 0    12.280500    22.810500    19.300500
73 1 0    10.530000    21.060000    21.060000
74 1 0    12.280500    22.810500    22.810500
75 1 0    10.530000    21.060000    24.570000
76 1 0    12.280500    22.810500    26.320500
77 1 0    10.530000    21.060000    28.080000
78 1 0    12.280500    22.810500    29.830500
79 1 0    10.530000    21.060000    31.590000
80 1 0    12.280500    22.810500    33.340500
81 1 0    10.530000    21.060000    35.100000
82 1 0    12.280500    22.810500    36.850500
83 1 0    10.530000    21.060000    38.610000
84 1 0    12.280500    22.810500    40.360500
85 1 0    10.530000    21.060000    42.120000
86 1 0    12.280500    22.810500    43.870500
87 1 0    10.530000    21.060000    45.630000
88 1 0    12.280500    22.810500    47.380500
89 1 0    10.530000    21.060000    49.140000
90 1 0    12.280500    22.810500    50.890500
91 1 0    10.530000    21.060000    52.650000
92 1 0    12.280500    22.810500    54.400500
93 1 0    10.530000    21.060000    56.160000
94 1 0    12.280500    22.810500    57.910500
95 1 0    10.530000    21.060000    59.670000
96 1 0    12.280500    22.810500    61.420500
97 1 0    10.530000    21.060000    63.180000
98 1 0    12.280500    22.810500    64.930500
99 1 0    10.530000    21.060000    66.690000
100 1 0    12.280500    22.810500    68.440500
101 1 0    10.530000    21.060000    70.200000
102 1 0    12.280500    22.810500    71.950500
103 1 0    10.530000    21.060000    73.710000
104 1 0    12.280500    22.810500    75.460500
105 1 0    10.530000    21.060000    77.220000
106 1 0    12.280500    22.810500    78.970500
107 1 0    10.530000    21.060000    80.730000
108 1 0    12.280500    22.810500    82.480500
109 1 0    10.530000    21.060000    84.240000
110 1 0    12.280500    22.810500    85.990500
111 1 0    10.530000    21.060000    87.750000
112 1 0    12.280500    22.810500    89.500500
113 1 0    10.530000    21.060000    91.260000
114 1 0    12.280500    22.810500    93.010500
115 1 0    10.530000    21.060000    94.770000
116 1 0    12.280500    22.810500    96.520500
117 1 0    10.530000    21.060000    98.280000
118 1 0    12.280500    22.810500   100.030500
119 1 0    10.530000    21.060000   101.790000
120 1 0    12.280500    22.810500   103.540500
121 1 0    12.280500    26.320500     1.750500
122 1 0    12.280500    26.320500     5.260500
123 1 0    12.280500    26.320500     8.770500
124 1 0    12.280500    26.320500    12.280500
125 1 0    12.280500    26.320500    15.790500
126 1 0    12.280500    26.320500    19.300500
127 1 0    12.280500    26.320500    22.810500
128 1 0    12.280500    26.320500    26.320500
129 1 0    12.280500    26.320500    29.830500
130 1 0    12.280500    26.320500    33.340500
131 1 0    12.280500    26.320500    36.850500
132 1 0    12.280500    26.320500    40.360500
133 1 0    12.280500    26.320500    43.870500
134 1 0    12.280500    26.320500    47.380500
135 1 0    12.280500    26.320500    50.890500
136 1 0    12.280500    26.320500    54.400500
137 1 0    12.280500    26.320500    57.910500
138 1 0    12.280500    26.320500    61.420500
139 1 0    12.280500    26.320500    64.930500
140 1 0    12.280500    26.320500    68.440500
141 1 0    12.280500    26.320500    71.950500
142 1 0    12.280500    26.320500    75.460500
143 1 0    12.280500    26.320500    78.970500
144 1 0    12.280500    26.320500    82.480500
145 1 0    12.280500    26.320500    85.990500
146 1 0    12.280500    26.320500    89.500500
147 1 0    12.280500    26.320500    93.010500
148 1 0    12.280500    26.320500    96.520500
149 1 0    12.280500    26.320500   100.030500
150 1 0    12.280500    26.320500   103.540500
151 1 0    15.790500    12.280500     1.750500
152 1 0    15.790500    12.280500     5.260500
153 1 0    15.790500    12.280500     8.770500
154 1 0    15.790500    12.280500    12.280500
155 1 0    15.790500    12.280500    15.790500
156 1 0    15.790500    12.280500    19.300500
157 1 0    15.790500    12.280500    22.810500
158 1 0    15.790500    12.280500    26.320500
159 1 0    15.790500    12.280500    29.830500
160 1 0    15.790500    12.280500    33.340500
161 1 0    15.790500    12.280500    36.850500
162 1 0    15.790500    12.280500    40.360500
163 1 0    15.790500    12.280500    43.870500
164 1 0    15.790500    12.280500    47.380500
165 1 0    15.790500    12.280500    50.890500
166 1 0    15.790500    12.280500    54.400500
167 1 0    15.790500    12.280500    57.910500
168 1 0    15.790500    12.280500    61.420500
169 1 0    15.790500    12.280500    64.930500
170 1 0    15.790500    12.280500    68.440500
171 1 0    15.790500    12.280500    71.950500
172 1 0    15.790500    12.280500    75.460500
173 1 0    15.790500    12.280500    78.970500
174 1 0    15.790500    12.280500    82.480500
175 1 0    15.790500    12.280500    85.990500
176 1 0    15.790500    12.280500    89.500500
177 1 0    15.790500    12.280500    93.010500
178 1 0    15.790500    12.280500    96.520500
179 1 0    15.790500    12.280500   100.030500
180 1 0    15.790500    12.280500   103.540500
181 1 0    14.040000    14.040000     0.000000
182 1 0    15.790500    15.790500     1.750500
183 1 0    14.040000    14.040000     3.510000
184 1 0    15.790500    15.790500     5.260500
185 1 0    14.040000    14.040000     7.020000
186 1 0    15.790500    15.790500     8.770500
187 1 0    14.040000    14.040000    10.530000
188 1 0    15.790500    15.790500    12.280500
189 1 0    14.040000    14.040000    14.040000
190 1 0    15.790500    15.790500    15.790500
191 1 0    14.040000    14.040000    17.550000
192 1 0    15.790500    15.790500    19.300500
193 1 0    14.040000    14.040000    21.060000
194 1 0    15.790500    15.790500    22.810500
195 1 0    14.040000    14.040000    24.570000
196 1 0    15.790500    15.790500    26.320500
197 1 0    14.040000    14.040000    28.080000
198 1 0    15.790500    15.790500    29.830500
199 1 0    14.040000    14.040000    31.590000
200 1 0    15.790500    15.790500    33.340500
201 1 0    14.040000    14.040000    35.100000
202 1 0    15.790500    15.790500    36.850500
203 1 0    14.040000    14.040000    38.610000
204 1 0    15.790500    15.790500    40.360500
205 1 0    14.040000    14.040000    42.120000
206 1 0    15.790500    15.790500    43.870500
207 1 0    14.040000    14.040000    45.630000
208 1 0    15.790500    15.790500    47.380500
209 1 0    14.040000    14.040000    49.140000
210 1 0    15.790500    15.790500    50.890500
211 1 0    14.040000    14.040000    52.650000
212 1 0    15.790500    15.790500    54.400500
213 1 0    14.040000    14.040000    56.160000
214 1 0    15.790500    15.790500    57.910500
215 1 0    14.040000    14.040000    59.670000
216 1 0    15.790500    15.790500    61.420500
217 1 0    14.040000    14.040000    63.180000
218 1 0    15.790500    15.790500    64.930500
219 1 0    14.040000    14.040000    66.690000
220 1 0    15.790500    15.790500    68.440500
221 1 0    14.040000    14.040000    70.200000
222 1 0    15.790500    15.790500    71.950500
223 1 0    14.040000    14.040000    73.710000
224 1 0    15.790500    15.790500    75.460500
225 1 0    14.040000    14.040000    77.220000
226 1 0    15.790500    15.790500    78.970500
227 1 0    14.040000    14.040000    80.730000
228 1 0    15.790500    15.790500    82.480500
229 1 0    14.040000    14.040000    84.240000
230 1 0    15.790500    15.790500    85.990500
231 1 0    14.040000    14.040000    87.750000
232 1 0    15.790500    15.790500    89.500500
233 1 0    14.040000    14.040000    91.260000
234 1 0    15.790500    15.790500    93.010500
235 1 0    14.040000    14.040000    94.770000
236 1 0    15.790500    15.790500    96.520500
237 1 0    14.040000    14.040000    98.280000
238 1 0    15.790500    15.790500   100.030500
239 1 0    14.040000    14.040000   101.790000
240 1 0    15.790500    15.790500   103.540500
241 1 0    14.040000    17.550000     0.000000
242 1 0    15.790500    19.300500     1.750500
243 1 0    14.040000    17.550000     3.510000
244 1 0    15.790500    19.300500     5.260500
245 1 0    14.040000    17.550000     7.020000
246 1 0    15.790500    19.300500     8.770500
247 1 0    14.040000    17.550000    10.530000
248 1 0    15.790500    19.300500    12.280500
249 1 0    14.040000    17.550000    14.040000
250 1 0    15.790500    19.300500    15.790500
251 1 0    14.040000    17.550000    17.550000
252 1 0    15.790500    19.300500    19.300500
253 1 0    14.040000    17.550000    21.060000
254 1 0    15.790500    19.300500    22.810500
255 1 0    14.040000    17.550000    24.570000
256 1 0    15.790500    19.300500    26.320500
257 1 0    14.040000    17.550000    28.080000
258 1 0    15.790500    19.300500    29.830500
259 1 0    14.040000    17.550000    31.590000
260 1 0    15.790500    19.300500    33.340500
261 1 0    14.040000    17.550000    35.100000
262 1 0    15.790500    19.300500    36.850500
263 1 0    14.040000    17.550000    38.610000
264 1 0    15.790500    19.300500    40.360500
265 1 0    14.040000    17.550000    42.120000
266 1 0    15.790500    19.300500    43.870500
267 1 0    14.040000    17.550000    45.630000
268 1 0    15.790500    19.300500    47.380500
269 1 0    14.040000    17.550000    49.140000
270 1 0    15.790500    19.300500    50.890500
271 1 0    14.040000    17.550000    52.650000
272 1 0    15.790500    19.300500    54.400500
273 1 0    14.040000    17.550000    56.160000
274 1 0    15.790500    19.300500    57.910500
275 1 0    14.040000    17.550000    59.670000
276 1 0    15.790500    19.300500    61.420500
277 1 0    14.040000    17.550000    63.180000
278 1 0    15.790500    19.300500    64.930500
279 1 0    14.040000    17.550000    66.690000
280 1 0    15.790500    19.300500    68.440500
281 1 0    14.040000    17.550000    70.200000
282 1 0    15.790500    19.300500    71.950500
283 1 0    14.040000    17.550000    73.710000
284 1 0    15.790500    19.300500    75.460500
285 1 0    14.040000    17.550000    77.220000
286 1 0    15.790500    19.300500    78.970500
287 1 0    14.040000    17.550000    80.730000
288 1 0    15.790500    19.300500    82.480500
289 1 0    14.040000    17.550000    84.240000
290 1 0    15.790500    19.300500    85.990500
291 1 0    14.040000    17.550000    87.750000
292 1 0    15.790500    19.300500    89.500500
293 1 0    14.040000    17.550000    91.260000
294 1 0    15.790500    19.300500    93.010500
295 1 0    14.040000    17.550000    94.770000
296 1 0    15.790500    19.300500    96.520500
297 1 0    14.040000    17.550000    98.280000
298 1 0    15.790500    19.300500   100.030500
299 1 0    14.040000    17.550000   101.790000
300 1 0    15.790500    19.300500   103.540500
301 1 0    14.040000    21.060000     0.000000
302 1 0    15.790500    22.810500     1.750500
303 1 0    14.040000    21.060000     3.510000
304 1 0    15.790500    22.810500     5.260500
305 1 0    14.040000    21.060000     7.020000
306 1 0    15.790500    22.810500     8.770500
307 1 0    14.040000    21.060000    10.530000
308 1 0    15.790500    22.810500    12.280500
309 1 0    14.040000    21.060000    14.040000
310 1 0    15.790500    22.810500    15.790500
311 1 0    14.040000    21.060000    17.550000
312 1 0    15.790500    22.810500    19.300500
313 1 0    14.040000    21.060000    21.060000
314 1 0    15.790500    22.810500    22.810500
315 1 0    14.040000    21.060000    24.570000
316 1 0    15.790500    22.810500    26.320500
317 1 0    14.040000    21.060000    28.080000
318 1 0    15.790500    22.810500    29.830500
319 1 0    14.040000    21.060000    31.590000
320 1 0    15.790500    22.810500    33.340500
321 1 0    14.040000    21.060000    35.100000
322 1 0    15.790500    22.810500    36.850500
323 1 0    14.040000    21.060000    38.610000
324 1 0    15.790500    22.810500    40.360500
325 1 0    14.040000    21.060000    42.120000
326 1 0    15.790500    22.810500    43.870500
327 1 0    14.040000    21.060000    45.630000
328 1 0    15.790500    22.810500    47.380500
329 1 0    14.040000    21.060000    49.140000
330 1 0    15.790500    22.810500    50.890500
331 1 0    14.040000    21.060000    52.650000
332 1 0    15.790500    22.810500    54.400500
333 1 0    14.040000    21.060000    56.160000
334 1 0    15.790500    22.810500    57.910500
335 1 0    14.040000    21.060000    59.670000
336 1 0    15.790500    22.810500    61.420500
337 1 0    14.040000    21.060000    63.180000
338 1 0    15.790500    22.810500    64.930500
339 1 0    14.040000    21.060000    66.690000
340 1 0    15.790500    22.810500    68.440500
341 1 0    14.040000    21.060000    70.200000
342 1 0    15.790500    22.810500    71.950500
343 1 0    14.040000    21.060000    73.710000
344 1 0    15.790500    22.810500    75.460500
345 1 0    14.040000    21.060000    77.220000
346 1 0    15.790500    22.810500    78.970500
347 1 0    14.040000    21.060000    80.730000
348 1 0    15.790500    22.810500    82.480500
349 1 0    14.040000    21.060000    84.240000
350 1 0    15.790500    22.810500    85.990500
351 1 0    14.040000    21.060000    87.750000
352 1 0    15.790500    22.810500    89.500500
353 1 0    14.040000    21.060000    91.260000
354 1 0    15.790500    22.810500    93.010500
355 1 0    14.040000    21.060000    94.770000
356 1 0    15.790500    22.810500    96.520500
357 1 0    14.040000    21.060000    98.280000
358 1 0    15.790500    22.810500   100.030500
359 1 0    14.040000    21.060000   101.790000
360 1 0    15.790500    22.810500   103.540500
361 1 0    14.040000    24.570000     0.000000
362 1 0    15.790500    26.320500     1.750500
363 1 0    14.040000    24.570000     3.510000
364 1 0    15.790500    26.320500     5.260500
365 1 0    14.040000    24.570000     7.020000
366 1 0    15.790500    26.320500     8.770500
367 1 0    14.040000    24.570000    10.530000
368 1 0    15.790500    26.320500    12.280500
369 1 0    14.040000    24.570000    14.040000
370 1 0    15.790500    26.320500    15.790500
371 1 0    14.040000    24.570000    17.550000
372 1 0    15.790500    26.320500    19.300500
373 1 0    14.040000    24.570000    21.060000
374 1 0    15.790500    26.320500    22.810500
375 1 0    14.040000    24.570000    24.570000
376 1 0    15.790500    26.320500    26.320500
377 1 0    14.040000    24.570000    28.080000
378 1 0    15.790500    26.320500    29.830500
379 1 0    14.040000    24.570000    31.590000
380 1 0    15.790500    26.320500    33.340500
381 1 0    14.040000    24.570000    35.100000
382 1 0    15.790500    26.320500    36.850500
383 1 0    14.040000    24.570000    38.610000
384 1 0    15.790500    26.320500    40.360500
385 1 0    14.040000    24.570000    42.120000
386 1 0    15.790500    26.320500    43.870500
387 1 0    14.040000    24.570000    45.630000
388 1 0    15.790500    26.320500    47.380500
389 1 0    14.040000    24.570000    49.140000
390 1 0    15.790500    26.320500    50.890500
391 1 0    14.040000    24.570000    52.650000
392 1 0    15.790500    26.320500    54.400500
393 1 0    14.040000    24.570000    56.160000
394 1 0    15.790500    26.320500    57.910500
395 1 0    14.040000    24.570000    59.670000
396 1 0    15.790500    26.320500    61.420500
397 1 0    14.040000    24.570000    63.180000
398 1 0    15.790500    26.320500    64.930500
399 1 0    14.040000    24.570000    66.690000
400 1 0    15.790500    26.320500    68.440500
401 1 0    14.040000    24.570000    70.200000
402 1 0    15.790500    26.320500    71.950500
403 1 0    14.040000    24.570000    73.710000
404 1 0    15.790500    26.320500    75.460500
405 1 0    14.040000    24.570000    77.220000
406 1 0    15.790500    26.320500    78.970500
407 1 0    14.040000    24.570000    80.730000
408 1 0    15.790500    26.320500    82.480500
409 1 0    14.040000    24.570000    84.240000
410 1 0    15.790500    26.320500    85.990500
411 1 0    14.040000    24.570000    87.750000
412 1 0    15.790500    26.320500    89.500500
413 1 0    14.040000    24.570000    91.260000
414 1 0    15.790500    26.320500    93.010500
415 1 0    14.040000    24.570000    94.770000
416 1 0    15.790500    26.320500    96.520500
417 1 0    14.040000    24.570000    98.280000
418 1 0    15.790500    26.320500   100.030500
419 1 0    14.040000    24.570000   101.790000
420 1 0    15.790500    26.320500   103.540500
421 1 0    14.040000    28.080000     0.000000
422 1 0    15.790500    29.830500     1.750500
423 1 0    14.040000    28.080000     3.510000
424 1 0    15.790500    29.830500     5.260500
425 1 0    14.040000    28.080000     7.020000
426 1 0    15.790500    29.830500     8.770500
427 1 0    14.040000    28.080000    10.530000
428 1 0    15.790500    29.830500    12.280500
429 1 0    14.040000    28.080000    14.040000
430 1 0    15.790500    29.830500    15.790500
431 1 0    14.040000    28.080000    17.550000
432 1 0    15.790500    29.830500    19.300500
433 1 0    14.040000    28.080000    21.060000
434 1 0    15.790500    29.830500    22.810500
435 1 0    14.040000    28.080000    24.570000
436 1 0    15.790500    29.830500    26.320500
437 1 0    14.040000    28.080000    28.080000
438 1 0    15.790500    29.830500    29.830500
439 1 0    14.040000    28.080000    31.590000
440 1 0    15.790500    29.830500    33.340500
441 1 0    14.040000    28.080000    35.100000
442 1 0    15.790500    29.830500    36.850500
443 1 0    14.040000    28.080000    38.610000
444 1 0    15.790500    29.830500    40.360500
445 1 0    14.040000    28.080000    42.120000
446 1 0    15.790500    29.830500    43.870500
447 1 0    14.040000    28.080000    45.630000
448 1 0    15.790500    29.830500    47.380500
449 1 0    14.040000    28.080000    49.140000
450 1 0    15.790500    29.830500    50.890500
451 1 0    14.040000    28.080000    52.650000
452 1 0    15.790500    29.830500    54.400500
453 1 0    14.040000    28.080000    56.160000
454 1 0    15.790500    29.830500    57.910500
455 1 0    14.040000    28.080000    59.670000
456 1 0    15.790500    29.830500    61.420500
457 1 0    14.040000    28.080000    63.180000
458 1 0    15.790500    29.830500    64.930500
459 1 0    14.040000    28.080000    66.690000
460 1 0    15.790500    29.830500    68.440500
461 1 0    14.040000    28.080000    70.200000
462 1 0    15.790500    29.830500    71.950500
463 1 0    14.040000    28.080000    73.710000
464 1 0    15.790500    29.830500    75.460500
465 1 0    14.040000    28.080000    77.220000
466 1 0    15.790500    29.830500    78.970500
467 1 0    14.040000    28.080000    80.730000
468 1 0    15.790500    29.830500    82.480500
469 1 0    14.040000    28.080000    84.240000
470 1 0    15.790500    29.830500    85.990500
471 1 0    14.040000    28.080000    87.750000
472 1 0    15.790500    29.830500    89.500500
473 1 0    14.040000    28.080000    91.260000
474 1 0    15.790500    29.830500    93.010500
475 1 0    14.040000    28.080000    94.770000
476 1 0    15.790500    29.830500    96.520500
477 1 0    14.040000    28.080000    98.280000
478 1 0    15.790500    29.830500   100.030500
479 1 0    14.040000    28.080000   101.790000
480 1 0    15.790500    29.830500   103.540500
481 1 0    19.300500    12.280500     1.750500
482 1 0    19.300500    12.280500     5.260500
483 1 0    19.300500    12.280500     8.770500
484 1 0    19.300500    12.280500    12.280500
485 1 0    19.300500    12.280500    15.790500
486 1 0    19.300500    12.280500    19.300500
487 1 0    19.300500    12.280500    22.810500
488 1 0    19.300500    12.280500    26.320500
489 1 0    19.300500    12.280500    29.830500
490 1 0    19.300500    12.280500    33.340500
491 1 0    19.300500    12.280500    36.850500
492 1 0    19.300500    12.280500    40.360500
493 1 0    19.300500    12.280500    43.870500
494 1 0    19.300500    12.280500    47.380500
495 1 0    19.300500    12.280500    50.890500
496 1 0    19.300500    12.280500    54.400500
497 1 0    19.300500    12.280500    57.910500
498 1 0    19.300500    12.280500    61.420500
499 1 0    19.300500    12.280500    64.930500
500 1 0    19.300500    12.280500    68.440500
501 1 0    19.300500    12.280500    71.950500
502 1 0    19.300500    12.280500    75.460500
503 1 0    19.300500    12.280500    78.970500
504 1 0    19.300500    12.280500    82.480500
505 1 0    19.300500    12.280500    85.990500
506 1 0    19.300500    12.280500    89.500500
507 1 0    19.300500    12.280500    93.010500
508 1 0    19.300500    12.280500    96.520500
509 1 0    19.300500    12.280500   100.030500
510 1 0    19.300500    12.280500   103.540500
511 1 0    17.550000    14.040000     0.000000
512 1 0    19.300500    15.790500     1.750500
513 1 0    17.550000    14.040000     3.510000
514 1 0    19.300500    15.790500     5.260500
515 1 0    17.550000    14.040000     7.020000
516 1 0    19.300500    15.790500     8.770500
517 1 0    17.550000    14.040000    10.530000
518 1 0    19.300500    15.790500    12.280500
519 1 0    17.550000    14.040000    14.040000
520 1 0    19.300500    15.790500    15.790500
521 1 0    17.550000    14.040000    17.550000
522 1 0    19.300500    15.790500    19.300500
523 1 0    17.550000    14.040000    21.060000
524 1 0    19.300500    15.790500    22.810500
525 1 0    17.550000    14.040000    24.570000
526 1 0    19.300500    15.790500    26.320500
527 1 0    17.550000    14.040000    28.080000
528 1 0    19.300500    15.790500    29.830500
529 1 0    17.550000    14.040000    31.590000
530 1 0    19.300500    15.790500    33.340500
531 1 0    17.550000    14.040000    35.100000
532 1 0    19.300500    15.790500    36.850500
533 1 0    17.550000    14.040000    38.610000
534 1 0    19.300500    15.790500    40.360500
535 1 0    17.550000    14.040000    42.120000
536 1 0    19.300500    15.790500    43.870500
537 1 0    17.550000    14.040000    45.630000
538 1 0    19.300500    15.790500    47.380500
539 1 0    17.550000    14.040000    49.140000
540 1 0    19.300500    15.790500    50.890500
541 1 0    17.550000    14.040000    52.650000
542 1 0    19.300500    15.790500    54.400500
543 1 0    17.550000    14.040000    56.160000
544 1 0    19.300500    15.790500    57.910500
545 1 0    17.550000    14.040000    59.670000
546 1 0    19.300500    15.790500    61.420500
547 1 0    17.550000    14.040000    63.180000
548 1 0    19.300500    15.790500    64.930500
549 1 0    17.550000    14.040000    66.690000
550 1 0    19.300500    15.790500    68.440500
551 1 0    17.550000    14.040000    70.200000
552 1 0    19.300500    15.790500    71.950500
553 1 0    17.550000    14.040000    73.710000
554 1 0    19.300500    15.790500    75.460500
555 1 0    17.550000    14.040000    77.220000
556 1 0    19.300500    15.790500    78.970500
557 1 0    17.550000    14.040000    80.730000
558 1 0    19.300500    15.790500    82.480500
559 1 0    17.550000    14.040000    84.240000
560 1 0    19.300500    15.790500    85.990500
561 1 0    17.550000    14.040000    87.750000
562 1 0    19.300500    15.790500    89.500500
563 1 0    17.550000    14.040000    91.260000
564 1 0    19.300500    15.790500    93.010500
565 1 0    17.550000    14.040000    94.770000
566 1 0    19.300500    15.790500    96.520500
567 1 0    17.550000    14.040000    98.280000
568 1 0    19.300500    15.790500   100.030500
569 1 0    17.550000    14.040000   101.790000
570 1 0    19.300500    15.790500   103.540500
571 1 0    17.550000    17.550000     0.000000
572 1 0    19.300500    19.300500     1.750500
573 1 0    17.550000    17.550000     3.510000
574 1 0    19.300500    19.300500     5.260500
575 1 0    17.550000    17.550000     7.020000
576 1 0    19.300500    19.300500     8.770500
577 1 0    17.550000    17.550000    10.530000
578 1 0    19.300500    19.300500    12.280500
579 1 0    17.550000    17.550000    14.040000
580 1 0    19.300500    19.300500    15.790500
581 1 0    17.550000    17.550000    17.550000
582 1 0    19.300500    19.300500    19.300500
583 1 0    17.550000    17.550000    21.060000
584 1 0    19.300500    19.300500    22.810500
585 1 0    17.550000    17.550000    24.570000
586 1 0    19.300500    19.300500    26.320500
587 1 0    17.550000    17.550000    28.080000
588 1 0    19.300500    19.300500    29.830500
589 1 0    17.550000    17.550000    31.590000
590 1 0    19.300500    19.300500    33.340500
591 1 0    17.550000    17.550000    35.100000
592 1 0    19.300500    19.300500    36.850500
593 1 0    17.550000    17.550000    38.610000
594 1 0    19.300500    19.300500    40.360500
595 1 0    17.550000    17.550000    42.120000
596 1 0    19.300500    19.300500    43.870500
597 1 0    17.550000    17.550000    45.630000
598 1 0    19.300500    19.300500    47.380500
599 1 0    17.550000    17.550000    49.140000
600 1 0    19.300500    19.300500    50.890500
601 1 0    17.550000    17.550000    52.650000
602 1 0    19.300500    19.300500    54.400500
603 1 0    17.550000    17.550000    56.160000
604 1 0    19.300500    19.300500    57.910500
605 1 0    17.550000    17.550000    59.670000
606 1 0    19.300500    19.300500    61.420500
607 1 0    17.550000    17.550000    63.180000
608 1 0    19.300500    19.300500    64.930500
609 1 0    17.550000    17.550000    66.690000
610 1 0    19.300500    19.300500    68.440500
611 1 0    17.550000    17.550000    70.200000
612 1 0    19.300500    19.300500    71.950500
613 1 0    17.550000    17.550000    73.710000
614 1 0    19.300500    19.300500    75.460500
615 1 0    17.550000    17.550000    77.220000
616 1 0    19.300500    19.300500    78.970500
617 1 0    17.550000    17.550000    80.730000
618 1 0    19.300500    19.300500    82.480500
619 1 0    17.550000    17.550000    84.240000
620 1 0    19.300500    19.300500    85.990500
621 1 0    17.550000    17.550000    87.750000
622 1 0    19.300500    19.300500    89.500500
623 1 0    17.550000    17.550000    91.260000
624 1 0    19.300500    19.300500    93.010500
625 1 0    17.550000    17.550000    94.770000
626 1 0    19.300500    19.300500    96.520500
627 1 0    17.550000    17.550000    98.280000
628 1 0    19.300500    19.300500   100.030500
629 1 0    17.550000    17.550000   101.790000
630 1 0    19.300500    19.300500   103.540500
631 1 0    17.550000    21.060000     0.000000
632 1 0    19.300500    22.810500     1.750500
633 1 0    17.550000    21.060000     3.510000
634 1 0    19.300500    22.810500     5.260500
635 1 0    17.550000    21.060000     7.020000
636 1 0    19.300500    22.810500     8.770500
637 1 0    17.550000    21.060000    10.530000