Postion for C atoms              
       
500  atoms          
1 atom types        
-40 40 xlo xhi    
-30 10 ylo yhi    
-10 10 zlo zhi    
Atoms       
       
1 1 -28.5203878495196 -16.3779782416963 0 0.146 1 
2 1 -28.7949229225558 -17.7868492544483 0 0.146 1 
3 1 -27.6967826304108 -12.1513652034402 0 0.146 1 
4 1 -27.971317703447 -13.5602362161922 0 0.146 1 
5 1 -29.3287033276639 -14.026917375089 0 0.146 1 
6 1 -29.6032384007002 -15.4357883878411 0 0.146 1 
7 1 -26.873177411302 -7.92475216518403 0 0.146 1 
8 1 -27.1477124843382 -9.33362317793608 0 0.146 1 
9 1 -28.5050981085552 -9.80030433683288 0 0.146 1 
10 1 -28.7796331815914 -11.2091753495849 0 0.146 1 
11 1 -26.0495721921932 -3.69813912692789 0 0.146 1 
12 1 -26.3241072652295 -5.10701013967994 0 0.146 1 
13 1 -27.6814928894464 -5.57369129857674 0 0.146 1 
14 1 -27.9560279624826 -6.98256231132879 0 0.146 1 
15 1 -25.2259669730844 0.528473911328244 0 0.146 1 
16 1 -25.5005020461207 -0.880397101423801 0 0.146 1 
17 1 -26.8578876703376 -1.34707826032061 0 0.146 1 
18 1 -27.1324227433738 -2.75594927307265 0 0.146 1 
19 1 -24.6768968270119 3.34621593683234 0 0.146 1 
20 1 -26.0342824512288 2.87953477793553 0 0.146 1 
21 1 -26.3088175242651 1.47066376518349 0 0.146 1 
22 1 -26.080151674122 -16.8534869366547 0 0.146 1 
23 1 -26.3546867471583 -18.2623579494068 0 0.146 1 
24 1 -27.7120723713752 -18.7290391083036 0 0.146 1 
25 1 -25.2565464550132 -12.6268738983986 0 0.146 1 
26 1 -25.5310815280495 -14.0357449111507 0 0.146 1 
27 1 -26.8884671522664 -14.5024260700475 0 0.146 1 
28 1 -27.1630022253026 -15.9112970827995 0 0.146 1 
29 1 -24.4329412359044 -8.40026086014247 0 0.146 1 
30 1 -24.7074763089407 -9.80913187289451 0 0.146 1 
31 1 -26.0648619331576 -10.2758130317913 0 0.146 1 
32 1 -26.3393970061939 -11.6846840445434 0 0.146 1 
33 1 -23.6093360167956 -4.17364782188633 0 0.146 1 
34 1 -23.8838710898319 -5.58251883463838 0 0.146 1 
35 1 -25.2412567140488 -6.04919999353518 0 0.146 1 
36 1 -25.5157917870851 -7.45807100628723 0 0.146 1 
37 1 -22.7857307976868 0.0529652163698051 0 0.146 1 
38 1 -23.0602658707231 -1.35590579638224 0 0.146 1 
39 1 -24.41765149494 -1.82258695527904 0 0.146 1 
40 1 -24.6921865679763 -3.23145796803109 0 0.146 1 
41 1 -22.2366606516143 2.8707072418739 0 0.146 1 
42 1 -23.5940462758312 2.40402608297709 0 0.146 1 
43 1 -23.8685813488675 0.995155070225048 0 0.146 1 
44 1 -23.6399154987244 -17.3289956316132 0 0.146 1 
45 1 -23.9144505717607 -18.7378666443652 0 0.146 1 
46 1 -25.2718361959776 -19.204547803262 0 0.146 1 
47 1 -22.8163102796156 -13.102382593357 0 0.146 1 
48 1 -23.0908453526519 -14.5112536061091 0 0.146 1 
49 1 -24.4482309768688 -14.9779347650059 0 0.146 1 
50 1 -24.7227660499051 -16.3868057777579 0 0.146 1 
51 1 -21.9927050605069 -8.87576955510091 0 0.146 1 
52 1 -22.2672401335431 -10.284640567853 0 0.146 1 
53 1 -23.62462575776 -10.7513217267498 0 0.146 1 
54 1 -23.8991608307963 -12.1601927395018 0 0.146 1 
55 1 -21.1690998413981 -4.64915651684477 0 0.146 1 
56 1 -21.4436349144343 -6.05802752959682 0 0.146 1 
57 1 -22.8010205386512 -6.52470868849362 0 0.146 1 
58 1 -23.0755556116875 -7.93357970124567 0 0.146 1 
59 1 -20.3454946222893 -0.422543478588632 0 0.146 1 
60 1 -20.6200296953255 -1.83141449134068 0 0.146 1 
61 1 -21.9774153195425 -2.29809565023748 0 0.146 1 
62 1 -22.2519503925787 -3.70696666298953 0 0.146 1 
63 1 -19.7964244762168 2.39519854691546 0 0.146 1 
64 1 -21.1538101004337 1.92851738801866 0 0.146 1 
65 1 -21.4283451734699 0.51964637526661 0 0.146 1 
66 1 -21.1996793233269 -17.8045043265716 0 0.146 1 
67 1 -21.4742143963631 -19.2133753393237 0 0.146 1 
68 1 -22.83160002058 -19.6800564982205 0 0.146 1 
69 1 -20.3760741042181 -13.5778912883155 0 0.146 1 
70 1 -20.6506091772543 -14.9867623010675 0 0.146 1 
71 1 -22.0079948014713 -15.4534434599643 0 0.146 1 
72 1 -22.2825298745075 -16.8623144727164 0 0.146 1 
73 1 -19.5524688851093 -9.35127825005934 0 0.146 1 
74 1 -19.8270039581456 -10.7601492628114 0 0.146 1 
75 1 -21.1843895823625 -11.2268304217082 0 0.146 1 
76 1 -21.4589246553987 -12.6357014344602 0 0.146 1 
77 1 -18.7288636660005 -5.12466521180321 0 0.146 1 
78 1 -19.0033987390368 -6.53353622455525 0 0.146 1 
79 1 -20.3607843632537 -7.00021738345206 0 0.146 1 
80 1 -20.6353194362899 -8.4090883962041 0 0.146 1 
81 1 -17.9052584468917 -0.89805217354707 0 0.146 1 
82 1 -18.179793519928 -2.30692318629912 0 0.146 1 
83 1 -19.5371791441449 -2.77360434519592 0 0.146 1 
84 1 -19.8117142171812 -4.18247535794796 0 0.146 1 
85 1 -17.3561883008192 1.91968985195702 0 0.146 1 
86 1 -18.7135739250361 1.45300869306022 0 0.146 1 
87 1 -18.9881089980724 0.0441376803081721 0 0.146 1 
88 1 -18.7594431479293 -18.2800130215301 0 0.146 1 
89 1 -19.0339782209656 -19.6888840342821 0 0.146 1 
90 1 -20.3913638451825 -20.1555651931789 0 0.146 1 
91 1 -17.9358379288205 -14.0533999832739 0 0.146 1 
92 1 -18.2103730018568 -15.462270996026 0 0.146 1 
93 1 -19.5677586260737 -15.9289521549228 0 0.146 1 
94 1 -19.84229369911 -17.3378231676748 0 0.146 1 
95 1 -17.1122327097117 -9.82678694501778 0 0.146 1 
96 1 -17.386767782748 -11.2356579577698 0 0.146 1 
97 1 -18.7441534069649 -11.7023391166666 0 0.146 1 
98 1 -19.0186884800012 -13.1112101294187 0 0.146 1 
99 1 -16.2886274906029 -5.60017390676165 0 0.146 1 
100 1 -16.5631625636392 -7.00904491951369 0 0.146 1 
101 1 -17.9205481878561 -7.47572607841049 0 0.146 1 
102 1 -18.1950832608924 -8.88459709116254 0 0.146 1 
103 1 -15.4650222714942 -1.37356086850551 0 0.146 1 
104 1 -15.7395573445304 -2.78243188125755 0 0.146 1 
105 1 -17.0969429687473 -3.24911304015436 0 0.146 1 
106 1 -17.3714780417836 -4.6579840529064 0 0.146 1 
107 1 -14.9159521254216 1.44418115699858 0 0.146 1 
108 1 -16.2733377496386 0.977499998101779 0 0.146 1 
109 1 -16.5478728226748 -0.431371014650266 0 0.146 1 
110 1 -16.3192069725317 -18.7555217164885 0 0.146 1 
111 1 -16.593742045568 -20.1643927292405 0 0.146 1 
112 1 -17.9511276697849 -20.6310738881373 0 0.146 1 
113 1 -15.495601753423 -14.5289086782324 0 0.146 1 
114 1 -15.7701368264592 -15.9377796909844 0 0.146 1 
115 1 -17.1275224506761 -16.4044608498812 0 0.146 1 
116 1 -17.4020575237124 -17.8133318626333 0 0.146 1 
117 1 -14.6719965343142 -10.3022956399762 0 0.146 1 
118 1 -14.9465316073504 -11.7111666527283 0 0.146 1 
119 1 -16.3039172315673 -12.1778478116251 0 0.146 1 
120 1 -16.5784523046036 -13.5867188243771 0 0.146 1 
121 1 -13.8483913152054 -6.07568260172008 0 0.146 1 
122 1 -14.1229263882416 -7.48455361447213 0 0.146 1 
123 1 -15.4803120124586 -7.95123477336893 0 0.146 1 
124 1 -15.7548470854948 -9.36010578612098 0 0.146 1 
125 1 -13.0247860960966 -1.84906956346395 0 0.146 1 
126 1 -13.2993211691329 -3.25794057621599 0 0.146 1 
127 1 -14.6567067933498 -3.7246217351128 0 0.146 1 
128 1 -14.931241866386 -5.13349274786484 0 0.146 1 
129 1 -12.4757159500241 0.968672462040145 0 0.146 1 
130 1 -13.833101574241 0.501991303143341 0 0.146 1 
131 1 -14.1076366472772 -0.906879709608704 0 0.146 1 
132 1 -13.8789707971342 -19.2310304114469 0 0.146 1 
133 1 -14.1535058701704 -20.639901424199 0 0.146 1 
134 1 -15.5108914943874 -21.1065825830958 0 0.146 1 
135 1 -13.0553655780254 -15.0044173731908 0 0.146 1 
136 1 -13.3299006510617 -16.4132883859428 0 0.146 1 
137 1 -14.6872862752786 -16.8799695448396 0 0.146 1 
138 1 -14.9618213483148 -18.2888405575917 0 0.146 1 
139 1 -12.2317603589166 -10.7778043349347 0 0.146 1 
140 1 -12.5062954319529 -12.1866753476867 0 0.146 1 
141 1 -13.8636810561698 -12.6533565065835 0 0.146 1 
142 1 -14.138216129206 -14.0622275193356 0 0.146 1 
143 1 -11.4081551398078 -6.55119129667852 0 0.146 1 
144 1 -11.6826902128441 -7.96006230943057 0 0.146 1 
145 1 -13.040075837061 -8.42674346832737 0 0.146 1 
146 1 -13.3146109100973 -9.83561448107942 0 0.146 1 
147 1 -10.584549920699 -2.32457825842238 0 0.146 1 
148 1 -10.8590849937353 -3.73344927117443 0 0.146 1 
149 1 -12.2164706179522 -4.20013043007123 0 0.146 1 
150 1 -12.4910056909885 -5.60900144282328 0 0.146 1 
151 1 -10.0354797746265 0.493163767081707 0 0.146 1 
152 1 -11.3928653988434 0.0264826081849026 0 0.146 1 
153 1 -11.6674004718797 -1.38238840456714 0 0.146 1 
154 1 -11.4387346217366 -19.7065391064054 0 0.146 1 
155 1 -11.7132696947729 -21.1154101191574 0 0.146 1 
156 1 -13.0706553189898 -21.5820912780542 0 0.146 1 
157 1 -10.6151294026278 -15.4799260681492 0 0.146 1 
158 1 -10.8896644756641 -16.8887970809013 0 0.146 1 
159 1 -12.247050099881 -17.3554782397981 0 0.146 1 
160 1 -12.5215851729173 -18.7643492525501 0 0.146 1 
161 1 -9.79152418351904 -11.2533130298931 0 0.146 1 
162 1 -10.0660592565553 -12.6621840426451 0 0.146 1 
163 1 -11.4234448807722 -13.1288652015419 0 0.146 1 
164 1 -11.6979799538085 -14.537736214294 0 0.146 1 
165 1 -8.96791896441026 -7.02669999163696 0 0.146 1 
166 1 -9.24245403744652 -8.43557100438901 0 0.146 1 
167 1 -10.5998396616634 -8.90225216328581 0 0.146 1 
168 1 -10.8743747346997 -10.3111231760379 0 0.146 1 
169 1 -8.14431374530147 -2.80008695338082 0 0.146 1 
170 1 -8.41884881833774 -4.20895796613287 0 0.146 1 
171 1 -9.77623444255465 -4.67563912502967 0 0.146 1 
172 1 -10.0507695155909 -6.08451013778172 0 0.146 1 
173 1 -7.59524359922895 0.0176550721232687 0 0.146 1 
174 1 -8.95262922344586 -0.449026086773535 0 0.146 1 
175 1 -9.22716429648212 -1.85789709952558 0 0.146 1 
176 1 -8.99849844633905 -20.1820478013638 0 0.146 1 
177 1 -9.27303351937531 -21.5909188141159 0 0.146 1 
178 1 -10.6304191435922 -22.0575999730127 0 0.146 1 
179 1 -8.17489322723027 -15.9554347631077 0 0.146 1 
180 1 -8.44942830026653 -17.3643057758597 0 0.146 1 
181 1 -9.80681392448344 -17.8309869347565 0 0.146 1 
182 1 -10.0813489975197 -19.2398579475086 0 0.146 1 
183 1 -7.35128800812148 -11.7288217248515 0 0.146 1 
184 1 -7.62582308115774 -13.1376927376036 0 0.146 1 
185 1 -8.98320870537466 -13.6043738965004 0 0.146 1 
186 1 -9.25774377841092 -15.0132449092524 0 0.146 1 
187 1 -6.5276827890127 -7.5022086865954 0 0.146 1 
188 1 -6.80221786204896 -8.91107969934744 0 0.146 1 
189 1 -8.15960348626587 -9.37776085824425 0 0.146 1 
190 1 -8.43413855930213 -10.7866318709963 0 0.146 1 
191 1 -5.70407756990391 -3.27559564833926 0 0.146 1 
192 1 -5.97861264294017 -4.68446666109131 0 0.146 1 
193 1 -7.33599826715708 -5.15114781998811 0 0.146 1 
194 1 -7.61053334019335 -6.56001883274016 0 0.146 1 
195 1 -5.15500742383139 -0.457853622835169 0 0.146 1 
196 1 -6.5123930480483 -0.924534781731973 0 0.146 1 
197 1 -6.78692812108456 -2.33340579448402 0 0.146 1 
198 1 -6.55826227094149 -20.6575564963222 0 0.146 1 
199 1 -6.83279734397775 -22.0664275090743 0 0.146 1 
200 1 -8.19018296819467 -22.5331086679711 0 0.146 1 
201 1 -5.73465705183271 -16.4309434580661 0 0.146 1 
202 1 -6.00919212486897 -17.8398144708182 0 0.146 1 
203 1 -7.36657774908588 -18.306495629715 0 0.146 1 
204 1 -7.64111282212214 -19.715366642467 0 0.146 1 
205 1 -4.91105183272392 -12.20433041981 0 0.146 1 
206 1 -5.18558690576018 -13.613201432562 0 0.146 1 
207 1 -6.54297252997709 -14.0798825914588 0 0.146 1 
208 1 -6.81750760301336 -15.4887536042109 0 0.146 1 
209 1 -4.08744661361513 -7.97771738155384 0 0.146 1 
210 1 -4.3619816866514 -9.38658839430588 0 0.146 1 
211 1 -5.71936731086831 -9.85326955320269 0 0.146 1 
212 1 -5.99390238390457 -11.2621405659547 0 0.146 1 
213 1 -3.26384139450635 -3.7511043432977 0 0.146 1 
214 1 -3.53837646754261 -5.15997535604974 0 0.146 1 
215 1 -4.89576209175952 -5.62665651494655 0 0.146 1 
216 1 -5.17029716479578 -7.03552752769859 0 0.146 1 
217 1 -2.71477124843382 -0.933362317793607 0 0.146 1 
218 1 -4.07215687265074 -1.40004347669041 0 0.146 1 
219 1 -4.346691945687 -2.80891448944246 0 0.146 1 
220 1 -4.11802609554393 -21.1330651912807 0 0.146 1 
221 1 -4.39256116858019 -22.5419362040327 0 0.146 1 
222 1 -5.7499467927971 -23.0086173629295 0 0.146 1 
223 1 -3.29442087643514 -16.9064521530245 0 0.146 1 
224 1 -3.5689559494714 -18.3153231657766 0 0.146 1 
225 1 -4.92634157368832 -18.7820043246734 0 0.146 1 
226 1 -5.20087664672458 -20.1908753374254 0 0.146 1 
227 1 -2.47081565732636 -12.6798391147684 0 0.146 1 
228 1 -2.74535073036262 -14.0887101275205 0 0.146 1 
229 1 -4.10273635457953 -14.5553912864173 0 0.146 1 
230 1 -4.37727142761579 -15.9642622991693 0 0.146 1 
231 1 -1.64721043821757 -8.45322607651227 0 0.146 1 
232 1 -1.92174551125383 -9.86209708926432 0 0.146 1 
233 1 -3.27913113547075 -10.3287782481611 0 0.146 1 
234 1 -3.55366620850701 -11.7376492609132 0 0.146 1 
235 1 -0.823605219108786 -4.22661303825614 0 0.146 1 
236 1 -1.09814029214505 -5.63548405100818 0 0.146 1 
237 1 -2.45552591636196 -6.10216520990499 0 0.146 1 
238 1 -2.73006098939822 -7.51103622265703 0 0.146 1 
239 1 -0.274535073036262 -1.40887101275205 0 0.146 1 
240 1 -1.63192069725317 -1.87555217164885 0 0.146 1 
241 1 -1.90645577028944 -3.28442318440089 0 0.146 1 
242 1 -1.67778992014637 -21.6085738862391 0 0.146 1 
243 1 -1.95232499318263 -23.0174448989912 0 0.146 1 
244 1 -3.30971061739954 -23.484126057888 0 0.146 1 
245 1 -0.854184701037581 -17.381960847983 0 0.146 1 
246 1 -1.12871977407384 -18.790831860735 0 0.146 1 
247 1 -2.48610539829076 -19.2575130196318 0 0.146 1 
248 1 -2.76064047132702 -20.6663840323839 0 0.146 1 
249 1 -0.030579481928795 -13.1553478097268 0 0.146 1 
250 1 -0.305114554965057 -14.5642188224789 0 0.146 1 
251 1 -1.66250017918197 -15.0308999813757 0 0.146 1 
252 1 -1.93703525221823 -16.4397709941277 0 0.146 1 
253 1 -0.838894960073183 -10.8042869431196 0 0.146 1 
254 1 -1.11343003310945 -12.2131579558716 0 0.146 1 
255 1 -0.0152897409643975 -6.57767390486342 0 0.146 1 
256 1 -0.289824814000659 -7.98654491761547 0 0.146 1 
257 1 -0.869474442001978 -23.9596347528464 0 0.146 1 
258 1 -0.0458692228931925 -19.7330217145903 0 0.146 1 
259 1 -0.320404295929454 -21.1418927273423 0 0.146 1 
260 1 1.67778992014637 -21.6085738862391 0 0.146 1 
261 1 1.95232499318263 -23.0174448989912 0 0.146 1 
262 1 0.869474442001978 -23.9596347528464 0 0.146 1 
263 1 0.854184701037581 -17.381960847983 0 0.146 1 
264 1 1.12871977407384 -18.790831860735 0 0.146 1 
265 1 4.11802609554393 -21.1330651912807 0 0.146 1 
266 1 4.39256116858019 -22.5419362040327 0 0.146 1 
267 1 3.30971061739954 -23.484126057888 0 0.146 1 
268 1 3.29442087643514 -16.9064521530245 0 0.146 1 
269 1 3.5689559494714 -18.3153231657766 0 0.146 1 
270 1 2.48610539829076 -19.2575130196318 0 0.146 1 
271 1 2.76064047132702 -20.6663840323839 0 0.146 1 
272 1 2.47081565732636 -12.6798391147684 0 0.146 1 
273 1 2.74535073036262 -14.0887101275205 0 0.146 1 
274 1 1.66250017918197 -15.0308999813757 0 0.146 1 
275 1 1.93703525221823 -16.4397709941277 0 0.146 1 
276 1 1.64721043821757 -8.45322607651227 0 0.146 1 
277 1 1.92174551125383 -9.86209708926432 0 0.146 1 
278 1 0.838894960073183 -10.8042869431196 0 0.146 1 
279 1 1.11343003310945 -12.2131579558716 0 0.146 1 
280 1 0.823605219108786 -4.22661303825614 0 0.146 1 
281 1 1.09814029214505 -5.63548405100818 0 0.146 1 
282 1 6.55826227094149 -20.6575564963222 0 0.146 1 
283 1 6.83279734397775 -22.0664275090743 0 0.146 1 
284 1 5.7499467927971 -23.0086173629295 0 0.146 1 
285 1 5.73465705183271 -16.4309434580661 0 0.146 1 
286 1 6.00919212486897 -17.8398144708182 0 0.146 1 
287 1 4.92634157368832 -18.7820043246734 0 0.146 1 
288 1 5.20087664672458 -20.1908753374254 0 0.146 1 
289 1 4.91105183272392 -12.20433041981 0 0.146 1 
290 1 5.18558690576018 -13.613201432562 0 0.146 1 
291 1 4.10273635457953 -14.5553912864173 0 0.146 1 
292 1 4.37727142761579 -15.9642622991693 0 0.146 1 
293 1 4.08744661361513 -7.97771738155384 0 0.146 1 
294 1 4.3619816866514 -9.38658839430588 0 0.146 1 
295 1 3.27913113547075 -10.3287782481611 0 0.146 1 
296 1 3.55366620850701 -11.7376492609132 0 0.146 1 
297 1 3.26384139450635 -3.7511043432977 0 0.146 1 
298 1 3.53837646754261 -5.15997535604974 0 0.146 1 
299 1 2.45552591636196 -6.10216520990499 0 0.146 1 
300 1 2.73006098939822 -7.51103622265703 0 0.146 1 
301 1 2.71477124843382 -0.933362317793607 0 0.146 1 
302 1 1.63192069725317 -1.87555217164885 0 0.146 1 
303 1 1.90645577028944 -3.28442318440089 0 0.146 1 
304 1 8.99849844633905 -20.1820478013638 0 0.146 1 
305 1 9.27303351937531 -21.5909188141159 0 0.146 1 
306 1 8.19018296819467 -22.5331086679711 0 0.146 1 
307 1 8.17489322723027 -15.9554347631077 0 0.146 1 
308 1 8.44942830026653 -17.3643057758597 0 0.146 1 
309 1 7.36657774908588 -18.306495629715 0 0.146 1 
310 1 7.64111282212214 -19.715366642467 0 0.146 1 
311 1 7.35128800812148 -11.7288217248515 0 0.146 1 
312 1 7.62582308115774 -13.1376927376036 0 0.146 1 
313 1 6.54297252997709 -14.0798825914588 0 0.146 1 
314 1 6.81750760301336 -15.4887536042109 0 0.146 1 
315 1 6.5276827890127 -7.5022086865954 0 0.146 1 
316 1 6.80221786204896 -8.91107969934744 0 0.146 1 
317 1 5.71936731086831 -9.85326955320269 0 0.146 1 
318 1 5.99390238390457 -11.2621405659547 0 0.146 1 
319 1 5.70407756990391 -3.27559564833926 0 0.146 1 
320 1 5.97861264294017 -4.68446666109131 0 0.146 1 
321 1 4.89576209175952 -5.62665651494655 0 0.146 1 
322 1 5.17029716479578 -7.03552752769859 0 0.146 1 
323 1 5.15500742383139 -0.457853622835169 0 0.146 1 
324 1 4.07215687265074 -1.40004347669041 0 0.146 1 
325 1 4.346691945687 -2.80891448944246 0 0.146 1 
326 1 11.4387346217366 -19.7065391064054 0 0.146 1 
327 1 11.7132696947729 -21.1154101191574 0 0.146 1 
328 1 10.6304191435922 -22.0575999730127 0 0.146 1 
329 1 10.6151294026278 -15.4799260681492 0 0.146 1 
330 1 10.8896644756641 -16.8887970809013 0 0.146 1 
331 1 9.80681392448344 -17.8309869347565 0 0.146 1 
332 1 10.0813489975197 -19.2398579475086 0 0.146 1 
333 1 9.79152418351904 -11.2533130298931 0 0.146 1 
334 1 10.0660592565553 -12.6621840426451 0 0.146 1 
335 1 8.98320870537466 -13.6043738965004 0 0.146 1 
336 1 9.25774377841092 -15.0132449092524 0 0.146 1 
337 1 8.96791896441026 -7.02669999163696 0 0.146 1 
338 1 9.24245403744652 -8.43557100438901 0 0.146 1 
339 1 8.15960348626587 -9.37776085824425 0 0.146 1 
340 1 8.43413855930213 -10.7866318709963 0 0.146 1 
341 1 8.14431374530147 -2.80008695338082 0 0.146 1 
342 1 8.41884881833774 -4.20895796613287 0 0.146 1 
343 1 7.33599826715708 -5.15114781998811 0 0.146 1 
344 1 7.61053334019335 -6.56001883274016 0 0.146 1 
345 1 7.59524359922895 0.0176550721232687 0 0.146 1 
346 1 6.5123930480483 -0.924534781731973 0 0.146 1 
347 1 6.78692812108456 -2.33340579448402 0 0.146 1 
348 1 13.8789707971342 -19.2310304114469 0 0.146 1 
349 1 14.1535058701704 -20.639901424199 0 0.146 1 
350 1 13.0706553189898 -21.5820912780542 0 0.146 1 
351 1 13.0553655780254 -15.0044173731908 0 0.146 1 
352 1 13.3299006510617 -16.4132883859428 0 0.146 1 
353 1 12.247050099881 -17.3554782397981 0 0.146 1 
354 1 12.5215851729173 -18.7643492525501 0 0.146 1 
355 1 12.2317603589166 -10.7778043349347 0 0.146 1 
356 1 12.5062954319529 -12.1866753476867 0 0.146 1 
357 1 11.4234448807722 -13.1288652015419 0 0.146 1 
358 1 11.6979799538085 -14.537736214294 0 0.146 1 
359 1 11.4081551398078 -6.55119129667852 0 0.146 1 
360 1 11.6826902128441 -7.96006230943057 0 0.146 1 
361 1 10.5998396616634 -8.90225216328581 0 0.146 1 
362 1 10.8743747346997 -10.3111231760379 0 0.146 1 
363 1 10.584549920699 -2.32457825842238 0 0.146 1 
364 1 10.8590849937353 -3.73344927117443 0 0.146 1 
365 1 9.77623444255465 -4.67563912502967 0 0.146 1 
366 1 10.0507695155909 -6.08451013778172 0 0.146 1 
367 1 10.0354797746265 0.493163767081707 0 0.146 1 
368 1 8.95262922344586 -0.449026086773535 0 0.146 1 
369 1 9.22716429648212 -1.85789709952558 0 0.146 1 
370 1 16.3192069725317 -18.7555217164885 0 0.146 1 
371 1 16.593742045568 -20.1643927292405 0 0.146 1 
372 1 15.5108914943874 -21.1065825830958 0 0.146 1 
373 1 15.495601753423 -14.5289086782324 0 0.146 1 
374 1 15.7701368264592 -15.9377796909844 0 0.146 1 
375 1 14.6872862752786 -16.8799695448396 0 0.146 1 
376 1 14.9618213483148 -18.2888405575917 0 0.146 1 
377 1 14.6719965343142 -10.3022956399762 0 0.146 1 
378 1 14.9465316073504 -11.7111666527283 0 0.146 1 
379 1 13.8636810561698 -12.6533565065835 0 0.146 1 
380 1 14.138216129206 -14.0622275193356 0 0.146 1 
381 1 13.8483913152054 -6.07568260172008 0 0.146 1 
382 1 14.1229263882416 -7.48455361447213 0 0.146 1 
383 1 13.040075837061 -8.42674346832737 0 0.146 1 
384 1 13.3146109100973 -9.83561448107942 0 0.146 1 
385 1 13.0247860960966 -1.84906956346395 0 0.146 1 
386 1 13.2993211691329 -3.25794057621599 0 0.146 1 
387 1 12.2164706179522 -4.20013043007123 0 0.146 1 
388 1 12.4910056909885 -5.60900144282328 0 0.146 1 
389 1 12.4757159500241 0.968672462040145 0 0.146 1 
390 1 11.3928653988434 0.0264826081849026 0 0.146 1 
391 1 11.6674004718797 -1.38238840456714 0 0.146 1 
392 1 18.7594431479293 -18.2800130215301 0 0.146 1 
393 1 19.0339782209656 -19.6888840342821 0 0.146 1 
394 1 17.9511276697849 -20.6310738881373 0 0.146 1 
395 1 17.9358379288205 -14.0533999832739 0 0.146 1 
396 1 18.2103730018568 -15.462270996026 0 0.146 1 
397 1 17.1275224506761 -16.4044608498812 0 0.146 1 
398 1 17.4020575237124 -17.8133318626333 0 0.146 1 
399 1 17.1122327097117 -9.82678694501778 0 0.146 1 
400 1 17.386767782748 -11.2356579577698 0 0.146 1 
401 1 16.3039172315673 -12.1778478116251 0 0.146 1 
402 1 16.5784523046036 -13.5867188243771 0 0.146 1 
403 1 16.2886274906029 -5.60017390676165 0 0.146 1 
404 1 16.5631625636392 -7.00904491951369 0 0.146 1 
405 1 15.4803120124586 -7.95123477336893 0 0.146 1 
406 1 15.7548470854948 -9.36010578612098 0 0.146 1 
407 1 15.4650222714942 -1.37356086850551 0 0.146 1 
408 1 15.7395573445304 -2.78243188125755 0 0.146 1 
409 1 14.6567067933498 -3.7246217351128 0 0.146 1 
410 1 14.931241866386 -5.13349274786484 0 0.146 1 
411 1 14.9159521254216 1.44418115699858 0 0.146 1 
412 1 13.833101574241 0.501991303143341 0 0.146 1 
413 1 14.1076366472772 -0.906879709608704 0 0.146 1 
414 1 21.1996793233269 -17.8045043265716 0 0.146 1 
415 1 21.4742143963631 -19.2133753393237 0 0.146 1 
416 1 20.3913638451825 -20.1555651931789 0 0.146 1 
417 1 20.3760741042181 -13.5778912883155 0 0.146 1 
418 1 20.6506091772543 -14.9867623010675 0 0.146 1 
419 1 19.5677586260737 -15.9289521549228 0 0.146 1 
420 1 19.84229369911 -17.3378231676748 0 0.146 1 
421 1 19.5524688851093 -9.35127825005934 0 0.146 1 
422 1 19.8270039581456 -10.7601492628114 0 0.146 1 
423 1 18.7441534069649 -11.7023391166666 0 0.146 1 
424 1 19.0186884800012 -13.1112101294187 0 0.146 1 
425 1 18.7288636660005 -5.12466521180321 0 0.146 1 
426 1 19.0033987390368 -6.53353622455525 0 0.146 1 
427 1 17.9205481878561 -7.4757260784105 0 0.146 1 
428 1 18.1950832608924 -8.88459709116254 0 0.146 1 
429 1 17.9052584468917 -0.89805217354707 0 0.146 1 
430 1 18.179793519928 -2.30692318629912 0 0.146 1 
431 1 17.0969429687473 -3.24911304015436 0 0.146 1 
432 1 17.3714780417836 -4.6579840529064 0 0.146 1 
433 1 17.3561883008192 1.91968985195702 0 0.146 1 
434 1 16.2733377496385 0.977499998101779 0 0.146 1 
435 1 16.5478728226748 -0.431371014650266 0 0.146 1 
436 1 23.6399154987244 -17.3289956316132 0 0.146 1 
437 1 23.9144505717607 -18.7378666443652 0 0.146 1 
438 1 22.83160002058 -19.6800564982205 0 0.146 1 
439 1 22.8163102796156 -13.102382593357 0 0.146 1 
440 1 23.0908453526519 -14.5112536061091 0 0.146 1 
441 1 22.0079948014713 -15.4534434599643 0 0.146 1 
442 1 22.2825298745075 -16.8623144727164 0 0.146 1 
443 1 21.9927050605069 -8.87576955510091 0 0.146 1 
444 1 22.2672401335431 -10.284640567853 0 0.146 1 
445 1 21.1843895823625 -11.2268304217082 0 0.146 1 
446 1 21.4589246553987 -12.6357014344602 0 0.146 1 
447 1 21.1690998413981 -4.64915651684477 0 0.146 1 
448 1 21.4436349144343 -6.05802752959682 0 0.146 1 
449 1 20.3607843632537 -7.00021738345206 0 0.146 1 
450 1 20.6353194362899 -8.4090883962041 0 0.146 1 
451 1 20.3454946222893 -0.422543478588632 0 0.146 1 
452 1 20.6200296953255 -1.83141449134068 0 0.146 1 
453 1 19.5371791441449 -2.77360434519592 0 0.146 1 
454 1 19.8117142171812 -4.18247535794796 0 0.146 1 
455 1 19.7964244762168 2.39519854691546 0 0.146 1 
456 1 18.7135739250361 1.45300869306022 0 0.146 1 
457 1 18.9881089980724 0.0441376803081717 0 0.146 1 
458 1 26.080151674122 -16.8534869366547 0 0.146 1 
459 1 26.3546867471583 -18.2623579494068 0 0.146 1 
460 1 25.2718361959776 -19.204547803262 0 0.146 1 
461 1 25.2565464550132 -12.6268738983986 0 0.146 1 
462 1 25.5310815280495 -14.0357449111507 0 0.146 1 
463 1 24.4482309768688 -14.9779347650059 0 0.146 1 
464 1 24.7227660499051 -16.3868057777579 0 0.146 1 
465 1 24.4329412359044 -8.40026086014247 0 0.146 1 
466 1 24.7074763089407 -9.80913187289451 0 0.146 1 
467 1 23.62462575776 -10.7513217267498 0 0.146 1 
468 1 23.8991608307963 -12.1601927395018 0 0.146 1 
469 1 23.6093360167956 -4.17364782188633 0 0.146 1 
470 1 23.8838710898319 -5.58251883463838 0 0.146 1 
471 1 22.8010205386512 -6.52470868849362 0 0.146 1 
472 1 23.0755556116875 -7.93357970124567 0 0.146 1 
473 1 22.7857307976868 0.0529652163698051 0 0.146 1 
474 1 23.0602658707231 -1.35590579638224 0 0.146 1 
475 1 21.9774153195425 -2.29809565023748 0 0.146 1 
476 1 22.2519503925787 -3.70696666298953 0 0.146 1 
477 1 22.2366606516143 2.8707072418739 0 0.146 1 
478 1 21.1538101004337 1.92851738801866 0 0.146 1 
479 1 21.4283451734699 0.51964637526661 0 0.146 1 
480 1 28.5203878495196 -16.3779782416963 0 0.146 1 
481 1 28.7949229225558 -17.7868492544483 0 0.146 1 
482 1 27.7120723713752 -18.7290391083036 0 0.146 1 
483 1 27.6967826304108 -12.1513652034402 0 0.146 1 
484 1 27.971317703447 -13.5602362161922 0 0.146 1 
485 1 26.8884671522664 -14.5024260700475 0 0.146 1 
486 1 27.1630022253026 -15.9112970827995 0 0.146 1 
487 1 26.873177411302 -7.92475216518403 0 0.146 1 
488 1 27.1477124843382 -9.33362317793608 0 0.146 1 
489 1 26.0648619331576 -10.2758130317913 0 0.146 1 
490 1 26.3393970061939 -11.6846840445434 0 0.146 1 
491 1 26.0495721921932 -3.69813912692789 0 0.146 1 
492 1 26.3241072652295 -5.10701013967994 0 0.146 1 
493 1 25.2412567140488 -6.04919999353518 0 0.146 1 
494 1 25.5157917870851 -7.45807100628723 0 0.146 1 
495 1 25.2259669730844 0.528473911328244 0 0.146 1 
496 1 25.5005020461207 -0.880397101423801 0 0.146 1 
497 1 24.41765149494 -1.82258695527904 0 0.146 1 
498 1 24.6921865679763 -3.23145796803109 0 0.146 1 
499 1 23.5940462758312 2.40402608297709 0 0.146 1 
500 1 23.8685813488675 0.995155070225048 0 0.146 1 
