Configuration for Diamond Nanopillar

8 atoms
1 atom types
0 3.5567173 xlo xhi
0 3.5567173 ylo yhi
0 3.5567173 zlo zhi

Atoms
Position for Diamond atoms
1 1 0 0.00783091 0.00699163 3.55141
1 1 0 3.56455 1.78535 1.77305
1 1 0 1.78619 0.00699163 1.77305
1 1 0 1.78619 1.78535 3.55141
1 1 0 0.89701 0.896171 0.883872
1 1 0 0.89701 2.67453 2.66223
1 1 0 2.67537 0.896171 2.66223
1 1 0 2.67537 2.67453 0.883872
