Configuration for Li2CO3 nanopillar Bulk Crystal

32231 atoms
1 atom types
0 132.48684 xlo xhi
0 116.82845999999999 ylo yhi
0 260.4735 zlo zhi

Atoms
Position for Li2CO3 nanopillar atoms
       1        1        0     0.989081     2.647012     4.856130
       2        1        0    -1.485077     4.129577     3.826322
       3        1        0    -0.631461     3.019346     0.932171
       4        1        0     1.842696     1.536782     1.961980
       5        2        0     1.865387     4.380415     1.447075
       6        2        0    -1.507768     1.285944     4.341226
       7        3        0     1.204694     3.277825     1.447075
       8        3        0    -0.847075     2.388534     4.341226
       9        3        0    -1.789049     4.393382     1.821851
      10        3        0     3.600254     1.164007     1.072300
      11        3        0     2.146663     1.272977     3.966451
      12        3        0    -3.242637     4.502356     4.716001
      13        2        0   -25.819473   -17.254485     1.447075
      14        2        0   -28.133573   -12.927505     1.447075
      15        3        0   -26.398706   -16.143913     1.072300
      16        3        0   -28.712806   -11.816933     1.072300
      17        2        0   -16.284353   -25.908445     1.447075
      18        2        0   -18.519553   -24.569045     7.235375
      19        2        0   -20.754753   -23.229645    13.023675
      20        1        0   -19.474759   -23.314868     4.856130
      21        1        0   -21.948917   -21.832303     3.826322
      22        1        0   -21.095301   -22.942534     0.932171
      23        1        0   -18.621144   -24.425098     1.961980
      24        2        0   -18.598453   -21.581465     1.447075
      25        3        0   -19.259146   -22.684055     1.447075
      26        3        0   -22.252889   -21.568498     1.821851
      27        3        0   -16.863586   -24.797873     1.072300
      28        3        0   -18.317177   -24.688903     3.966451
      29        1        0   -21.709959   -21.975468    10.644430
      30        1        0   -20.856344   -23.085698     7.750280
      31        2        0   -20.833653   -20.242065     7.235375
      32        3        0   -21.494346   -21.344655     7.235375
      33        3        0   -19.098786   -23.458473     6.860600
      34        3        0   -20.552377   -23.349503     9.754751
      35        2        0   -23.068853   -18.902665    13.023675
      36        3        0   -23.729546   -20.005255    13.023675
      37        3        0   -21.333986   -22.119073    12.648900
      38        2        0   -25.304053   -17.563265    18.811975
      39        3        0   -23.569186   -20.779673    18.437200
      40        1        0   -21.788859   -18.987888     4.856130
      41        1        0   -24.263017   -17.505323     3.826322
      42        1        0   -23.409401   -18.615554     0.932171
      43        1        0   -20.935244   -20.098118     1.961980
      44        2        0   -20.912553   -17.254485     1.447075
      45        3        0   -21.573246   -18.357075     1.447075
      46        3        0   -23.625015   -19.246366     4.341226
      47        3        0   -24.566989   -17.241518     1.821851
      48        3        0   -19.177686   -20.470893     1.072300
      49        3        0   -20.631277   -20.361923     3.966451
      50        3        0   -26.020577   -17.132544     4.716001
      51        1        0   -24.024059   -17.648488    10.644430
      52        1        0   -26.498217   -16.165923     9.614622
      53        1        0   -25.644601   -17.276154     6.720471
      54        1        0   -23.170444   -18.758718     7.750280
      55        2        0   -23.147753   -15.915085     7.235375
      56        3        0   -23.808446   -17.017675     7.235375
      57        3        0   -25.860215   -17.906966    10.129526
      58        3        0   -26.802189   -15.902118     7.610151
      59        3        0   -21.412886   -19.131493     6.860600
      60        3        0   -22.866477   -19.022523     9.754751
      61        1        0   -26.259259   -16.309088    16.432730
      62        1        0   -25.405644   -17.419318    13.538580
      63        2        0   -25.382953   -14.575685    13.023675
      64        3        0   -26.043646   -15.678275    13.023675
      65        3        0   -23.648086   -17.792093    12.648900
      66        3        0   -25.101677   -17.683123    15.543051
      67        2        0   -27.618153   -13.236285    18.811975
      68        3        0   -25.883286   -16.452693    18.437200
      69        1        0   -24.102959   -14.660908     4.856130
      70        1        0   -26.577117   -13.178343     3.826322
      71        1        0   -25.723501   -14.288574     0.932171
      72        1        0   -23.249344   -15.771138     1.961980
      73        2        0   -23.226653   -12.927505     1.447075
      74        2        0   -26.599808   -16.021976     4.341226
      75        3        0   -23.887346   -14.030095     1.447075
      76        3        0   -25.939115   -14.919386     4.341226
      77        3        0   -26.881089   -12.914538     1.821851
      78        3        0   -21.491786   -16.143913     1.072300
      79        3        0   -22.945377   -16.034943     3.966451
      80        3        0   -28.334677   -12.805564     4.716001
      81        1        0   -26.338159   -13.321508    10.644430
      82        1        0   -28.812317   -11.838943     9.614622
      83        1        0   -27.958701   -12.949174     6.720471
      84        1        0   -25.484544   -14.431738     7.750280
      85        2        0   -25.461853   -11.588105     7.235375
      86        3        0   -26.122546   -12.690695     7.235375
      87        3        0   -28.174315   -13.579986    10.129526
      88        3        0   -29.116289   -11.575138     7.610151
      89        3        0   -23.726986   -14.804513     6.860600
      90        3        0   -25.180577   -14.695543     9.754751
      91        1        0   -28.573359   -11.982108    16.432730
      92        1        0   -27.719744   -13.092338    13.538580
      93        2        0   -27.697053   -10.248705    13.023675
      94        3        0   -28.357746   -11.351295    13.023675
      95        3        0   -25.962186   -13.465113    12.648900
      96        3        0   -27.415777   -13.356143    15.543051
      97        2        0   -29.932253    -8.909305    18.811975
      98        3        0   -28.197386   -12.125713    18.437200
      99        1        0   -26.417059   -10.333928     4.856130
     100        1        0   -28.891217    -8.851363     3.826322
     101        1        0   -28.037601    -9.961594     0.932171
     102        1        0   -25.563444   -11.444158     1.961980
     103        2        0   -25.540753    -8.600525     1.447075
     104        2        0   -28.913908   -11.694996     4.341226
     105        3        0   -26.201446    -9.703115     1.447075
     106        3        0   -28.253215   -10.592406     4.341226
     107        3        0   -29.195189    -8.587558     1.821851
     108        3        0   -23.805886   -11.816933     1.072300
     109        3        0   -25.259477   -11.707963     3.966451
     110        1        0   -28.652259    -8.994528    10.644430
     111        1        0   -30.272801    -8.622194     6.720471
     112        1        0   -27.798644   -10.104758     7.750280
     113        2        0   -27.775953    -7.261125     7.235375
     114        3        0   -28.436646    -8.363715     7.235375
     115        3        0   -26.041086   -10.477533     6.860600
     116        3        0   -27.494677   -10.368563     9.754751
     117        1        0   -30.033844    -8.765358    13.538580
     118        2        0   -30.011153    -5.921725    13.023675
     119        3        0   -30.671846    -7.024315    13.023675
     120        3        0   -28.276286    -9.138133    12.648900
     121        3        0   -29.729877    -9.029163    15.543051
     122        3        0   -30.511486    -7.798733    18.437200
     123        1        0   -28.731159    -6.006948     4.856130
     124        1        0   -31.205317    -4.524383     3.826322
     125        1        0   -30.351701    -5.634614     0.932171
     126        1        0   -27.877544    -7.117178     1.961980
     127        2        0   -27.854853    -4.273545     1.447075
     128        3        0   -28.515546    -5.376135     1.447075
     129        3        0   -30.567315    -6.265426     4.341226
     130        3        0   -26.119986    -7.489953     1.072300
     131        3        0   -27.573577    -7.380983     3.966451
     132        1        0   -30.966359    -4.667548    10.644430
     133        1        0   -30.112744    -5.777778     7.750280
     134        2        0   -30.090053    -2.934145     7.235375
     135        3        0   -30.750746    -4.036735     7.235375
     136        3        0   -28.355186    -6.150553     6.860600
     137        3        0   -29.808777    -6.041583     9.754751
     138        3        0   -30.590386    -4.811153    12.648900
     139        1        0   -31.045259    -1.679968     4.856130
     140        1        0   -30.191644    -2.790198     1.961980
     141        2        0   -30.168953     0.053435     1.447075
     142        3        0   -30.829646    -1.049155     1.447075
     143        3        0   -28.434086    -3.162973     1.072300
     144        3        0   -29.887677    -3.054003     3.966451
     145        3        0   -30.669286    -1.823573     6.860600
     146        3        0   -30.748186     1.164007     1.072300
     147        2        0    -9.063333   -30.235425     1.447075
     148        2        0   -11.298533   -28.896025     7.235375
     149        2        0   -13.533733   -27.556625    13.023675
     150        2        0   -15.768933   -26.217225    18.811975
     151        2        0   -18.004133   -24.877825    24.600275
     152        2        0   -20.239333   -23.538425    30.388575
     153        2        0   -22.474533   -22.199025    36.176875
     154        1        0   -12.253739   -27.641848     4.856130
     155        1        0   -14.727897   -26.159283     3.826322
     156        1        0   -13.874281   -27.269514     0.932171
     157        1        0   -11.400124   -28.752078     1.961980
     158        2        0   -11.377433   -25.908445     1.447075
     159        3        0   -12.038126   -27.011035     1.447075
     160        3        0   -14.089895   -27.900326     4.341226
     161        3        0   -15.031869   -25.895478     1.821851
     162        3        0    -9.642566   -29.124853     1.072300
     163        3        0   -11.096157   -29.015883     3.966451
     164        3        0   -16.485457   -25.786504     4.716001
     165        1        0   -14.488939   -26.302448    10.644430
     166        1        0   -16.963097   -24.819883     9.614622
     167        1        0   -16.109481   -25.930114     6.720471
     168        1        0   -13.635324   -27.412678     7.750280
     169        2        0   -13.612633   -24.569045     7.235375
     170        3        0   -14.273326   -25.671635     7.235375
     171        3        0   -16.325095   -26.560926    10.129526
     172        3        0   -17.267069   -24.556078     7.610151
     173        3        0   -11.877766   -27.785453     6.860600
     174        3        0   -13.331357   -27.676483     9.754751
     175        3        0   -18.720657   -24.447104    10.504301
     176        1        0   -16.724139   -24.963048    16.432730
     177        1        0   -19.198297   -23.480483    15.402922
     178        1        0   -18.344681   -24.590714    12.508771
     179        1        0   -15.870524   -26.073278    13.538580
     180        2        0   -15.847833   -23.229645    13.023675
     181        3        0   -16.508526   -24.332235    13.023675
     182        3        0   -18.560295   -25.221526    15.917826
     183        3        0   -19.502269   -23.216678    13.398451
     184        3        0   -14.112966   -26.446053    12.648900
     185        3        0   -15.566557   -26.337083    15.543051
     186        3        0   -20.955857   -23.107704    16.292601
     187        1        0   -18.959339   -23.623648    22.221030
     188        1        0   -21.433497   -22.141083    21.191222
     189        1        0   -20.579881   -23.251314    18.297071
     190        1        0   -18.105724   -24.733878    19.326880
     191        2        0   -18.083033   -21.890245    18.811975
     192        3        0   -18.743726   -22.992835    18.811975
     193        3        0   -21.737469   -21.877278    19.186751
     194        3        0   -16.348166   -25.106653    18.437200
     195        3        0   -17.801757   -24.997683    21.331351
     196        1        0   -21.194539   -22.284248    28.009330
     197        1        0   -23.668697   -20.801683    26.979522
     198        1        0   -20.340924   -23.394478    25.115180
     199        2        0   -20.318233   -20.550845    24.600275
     200        3        0   -20.978926   -21.653435    24.600275
     201        3        0   -23.972669   -20.537878    24.975051
     202        3        0   -18.583366   -23.767253    24.225500
     203        3        0   -20.036957   -23.658283    27.119651
     204        1        0   -23.429739   -20.944848    33.797630
     205        1        0   -22.576124   -22.055078    30.903480
     206        2        0   -22.553433   -19.211445    30.388575
     207        3        0   -23.214126   -20.314035    30.388575
     208        3        0   -20.818566   -22.427853    30.013800
     209        3        0   -22.272157   -22.318883    32.907951
     210        2        0   -24.788633   -17.872045    36.176875
     211        3        0   -23.053766   -21.088453    35.802100
     212        1        0   -14.567839   -23.314868     4.856130
     213        1        0   -17.041997   -21.832303     3.826322
     214        1        0   -16.188381   -22.942534     0.932171
     215        1        0   -13.714224   -24.425098     1.961980
     216        2        0   -13.691533   -21.581465     1.447075
     217        2        0   -17.064688   -24.675936     4.341226
     218        3        0   -14.352226   -22.684055     1.447075
     219        3        0   -16.403995   -23.573346     4.341226
     220        3        0   -17.345969   -21.568498     1.821851
     221        3        0   -11.956666   -24.797873     1.072300
     222        3        0   -13.410257   -24.688903     3.966451
     223        3        0   -18.799557   -21.459524     4.716001
     224        1        0   -16.803039   -21.975468    10.644430
     225        1        0   -19.277197   -20.492903     9.614622
     226        1        0   -18.423581   -21.603134     6.720471
     227        1        0   -15.949424   -23.085698     7.750280
     228        2        0   -15.926733   -20.242065     7.235375
     229        2        0   -19.299888   -23.336536    10.129526
     230        3        0   -16.587426   -21.344655     7.235375
     231        3        0   -18.639195   -22.233946    10.129526
     232        3        0   -19.581169   -20.229098     7.610151
     233        3        0   -14.191866   -23.458473     6.860600
     234        3        0   -15.645457   -23.349503     9.754751
     235        3        0   -21.034757   -20.120124    10.504301
     236        1        0   -19.038239   -20.636068    16.432730
     237        1        0   -21.512397   -19.153503    15.402922
     238        1        0   -20.658781   -20.263734    12.508771
     239        1        0   -18.184624   -21.746298    13.538580
     240        2        0   -18.161933   -18.902665    13.023675
     241        2        0   -21.535088   -21.997136    15.917826
     242        3        0   -18.822626   -20.005255    13.023675
     243        3        0   -20.874395   -20.894546    15.917826
     244        3        0   -21.816369   -18.889698    13.398451
     245        3        0   -16.427066   -22.119073    12.648900
     246        3        0   -17.880657   -22.010103    15.543051
     247        3        0   -23.269957   -18.780724    16.292601
     248        1        0   -21.273439   -19.296668    22.221030
     249        1        0   -23.747597   -17.814103    21.191222
     250        1        0   -22.893981   -18.924334    18.297071
     251        1        0   -20.419824   -20.406898    19.326880
     252        2        0   -20.397133   -17.563265    18.811975
     253        2        0   -23.770288   -20.657736    21.706126
     254        3        0   -21.057826   -18.665855    18.811975
     255        3        0   -23.109595   -19.555146    21.706126
     256        3        0   -24.051569   -17.550298    19.186751
     257        3        0   -18.662266   -20.779673    18.437200
     258        3        0   -20.115857   -20.670703    21.331351
     259        3        0   -25.505157   -17.441324    22.080901
     260        1        0   -23.508639   -17.957268    28.009330
     261        1        0   -25.982797   -16.474703    26.979522
     262        1        0   -25.129181   -17.584934    24.085371
     263        1        0   -22.655024   -19.067498    25.115180
     264        2        0   -22.632333   -16.223865    24.600275
     265        3        0   -23.293026   -17.326455    24.600275
     266        3        0   -25.344795   -18.215746    27.494426
     267        3        0   -26.286769   -16.210898    24.975051
     268        3        0   -20.897466   -19.440273    24.225500
     269        3        0   -22.351057   -19.331303    27.119651
     270        1        0   -25.743839   -16.617868    33.797630
     271        1        0   -24.890224   -17.728098    30.903480
     272        2        0   -24.867533   -14.884465    30.388575
     273        3        0   -25.528226   -15.987055    30.388575
     274        3        0   -23.132666   -18.100873    30.013800
     275        3        0   -24.586257   -17.991903    32.907951
     276        2        0   -27.102733   -13.545065    36.176875
     277        3        0   -27.763426   -14.647655    36.176875
     278        3        0   -25.367866   -16.761473    35.802100
     279        3        0   -26.821457   -16.652503    38.696251
     280        1        0   -16.881939   -18.987888     4.856130
     281        1        0   -19.356097   -17.505323     3.826322
     282        1        0   -18.502481   -18.615554     0.932171
     283        1        0   -16.028324   -20.098118     1.961980
     284        2        0   -16.005633   -17.254485     1.447075
     285        2        0   -19.378788   -20.348956     4.341226
     286        3        0   -16.666326   -18.357075     1.447075
     287        3        0   -18.718095   -19.246366     4.341226
     288        3        0   -19.660069   -17.241518     1.821851
     289        3        0   -14.270766   -20.470893     1.072300
     290        3        0   -15.724357   -20.361923     3.966451
     291        3        0   -21.113657   -17.132544     4.716001
     292        1        0   -19.117139   -17.648488    10.644430
     293        1        0   -21.591297   -16.165923     9.614622
     294        1        0   -20.737681   -17.276154     6.720471
     295        1        0   -18.263524   -18.758718     7.750280
     296        2        0   -18.240833   -15.915085     7.235375
     297        2        0   -21.613988   -19.009556    10.129526
     298        3        0   -18.901526   -17.017675     7.235375
     299        3        0   -20.953295   -17.906966    10.129526
     300        3        0   -21.895269   -15.902118     7.610151
     301        3        0   -16.505966   -19.131493     6.860600
     302        3        0   -17.959557   -19.022523     9.754751
     303        3        0   -23.348857   -15.793144    10.504301
     304        1        0   -21.352339   -16.309088    16.432730
     305        1        0   -23.826497   -14.826523    15.402922
     306        1        0   -22.972881   -15.936754    12.508771
     307        1        0   -20.498724   -17.419318    13.538580
     308        2        0   -20.476033   -14.575685    13.023675
     309        2        0   -23.849188   -17.670156    15.917826
     310        3        0   -21.136726   -15.678275    13.023675
     311        3        0   -23.188495   -16.567566    15.917826
     312        3        0   -24.130469   -14.562718    13.398451
     313        3        0   -18.741166   -17.792093    12.648900
     314        3        0   -20.194757   -17.683123    15.543051
     315        3        0   -25.584057   -14.453744    16.292601
     316        1        0   -23.587539   -14.969688    22.221030
     317        1        0   -26.061697   -13.487123    21.191222
     318        1        0   -25.208081   -14.597354    18.297071
     319        1        0   -22.733924   -16.079918    19.326880
     320        2        0   -22.711233   -13.236285    18.811975
     321        2        0   -26.084388   -16.330756    21.706126
     322        3        0   -23.371926   -14.338875    18.811975
     323        3        0   -25.423695   -15.228166    21.706126
     324        3        0   -26.365669   -13.223318    19.186751
     325        3        0   -20.976366   -16.452693    18.437200
     326        3        0   -22.429957   -16.343723    21.331351
     327        3        0   -27.819257   -13.114344    22.080901
     328        1        0   -25.822739   -13.630288    28.009330
     329        1        0   -28.296897   -12.147723    26.979522
     330        1        0   -27.443281   -13.257954    24.085371
     331        1        0   -24.969124   -14.740518    25.115180
     332        2        0   -24.946433   -11.896885    24.600275
     333        3        0   -25.607126   -12.999475    24.600275
     334        3        0   -27.658895   -13.888766    27.494426
     335        3        0   -28.600869   -11.883918    24.975051
     336        3        0   -23.211566   -15.113293    24.225500
     337        3        0   -24.665157   -15.004323    27.119651
     338        1        0   -28.057939   -12.290888    33.797630
     339        1        0   -27.204324   -13.401118    30.903480
     340        2        0   -27.181633   -10.557485    30.388575
     341        3        0   -27.842326   -11.660075    30.388575
     342        3        0   -25.446766   -13.773893    30.013800
     343        3        0   -26.900357   -13.664923    32.907951
     344        2        0   -29.416833    -9.218085    36.176875
     345        3        0   -27.681966   -12.434493    35.802100
     346        1        0   -19.196039   -14.660908     4.856130
     347        1        0   -21.670197   -13.178343     3.826322
     348        1        0   -20.816581   -14.288574     0.932171
     349        1        0   -18.342424   -15.771138     1.961980
     350        2        0   -18.319733   -12.927505     1.447075
     351        2        0   -21.692888   -16.021976     4.341226
     352        3        0   -18.980426   -14.030095     1.447075
     353        3        0   -21.032195   -14.919386     4.341226
     354        3        0   -21.974169   -12.914538     1.821851
     355        3        0   -16.584866   -16.143913     1.072300
     356        3        0   -18.038457   -16.034943     3.966451
     357        3        0   -23.427757   -12.805564     4.716001
     358        1        0   -21.431239   -13.321508    10.644430
     359        1        0   -23.905397   -11.838943     9.614622
     360        1        0   -23.051781   -12.949174     6.720471
     361        1        0   -20.577624   -14.431738     7.750280
     362        2        0   -20.554933   -11.588105     7.235375
     363        2        0   -23.928088   -14.682576    10.129526
     364        3        0   -21.215626   -12.690695     7.235375
     365        3        0   -23.267395   -13.579986    10.129526
     366        3        0   -24.209369   -11.575138     7.610151
     367        3        0   -18.820066   -14.804513     6.860600
     368        3        0   -20.273657   -14.695543     9.754751
     369        3        0   -25.662957   -11.466164    10.504301
     370        1        0   -23.666439   -11.982108    16.432730
     371        1        0   -26.140597   -10.499543    15.402922
     372        1        0   -25.286981   -11.609774    12.508771
     373        1        0   -22.812824   -13.092338    13.538580
     374        2        0   -22.790133   -10.248705    13.023675
     375        2        0   -26.163288   -13.343176    15.917826
     376        3        0   -23.450826   -11.351295    13.023675
     377        3        0   -25.502595   -12.240586    15.917826
     378        3        0   -26.444569   -10.235738    13.398451
     379        3        0   -21.055266   -13.465113    12.648900
     380        3        0   -22.508857   -13.356143    15.543051
     381        3        0   -27.898157   -10.126764    16.292601
     382        1        0   -25.901639   -10.642708    22.221030
     383        1        0   -28.375797    -9.160143    21.191222
     384        1        0   -27.522181   -10.270374    18.297071
     385        1        0   -25.048024   -11.752938    19.326880
     386        2        0   -25.025333    -8.909305    18.811975
     387        2        0   -28.398488   -12.003776    21.706126
     388        3        0   -25.686026   -10.011895    18.811975
     389        3        0   -27.737795   -10.901186    21.706126
     390        3        0   -28.679769    -8.896338    19.186751
     391        3        0   -23.290466   -12.125713    18.437200
     392        3        0   -24.744057   -12.016743    21.331351
     393        3        0   -30.133357    -8.787364    22.080901
     394        1        0   -28.136839    -9.303308    28.009330
     395        1        0   -29.757381    -8.930974    24.085371
     396        1        0   -27.283224   -10.413538    25.115180
     397        2        0   -27.260533    -7.569905    24.600275
     398        3        0   -27.921226    -8.672495    24.600275
     399        3        0   -29.972995    -9.561786    27.494426
     400        3        0   -25.525666   -10.786313    24.225500
     401        3        0   -26.979257   -10.677343    27.119651
     402        1        0   -30.372039    -7.963908    33.797630
     403        1        0   -29.518424    -9.074138    30.903480
     404        2        0   -29.495733    -6.230505    30.388575
     405        3        0   -30.156426    -7.333095    30.388575
     406        3        0   -27.760866    -9.446913    30.013800
     407        3        0   -29.214457    -9.337943    32.907951
     408        3        0   -29.996066    -8.107513    35.802100
     409        1        0   -21.510139   -10.333928     4.856130
     410        1        0   -23.984297    -8.851363     3.826322
     411        1        0   -23.130681    -9.961594     0.932171
     412        1        0   -20.656524   -11.444158     1.961980
     413        2        0   -20.633833    -8.600525     1.447075
     414        2        0   -24.006988   -11.694996     4.341226
     415        3        0   -21.294526    -9.703115     1.447075
     416        3        0   -23.346295   -10.592406     4.341226
     417        3        0   -24.288269    -8.587558     1.821851
     418        3        0   -18.898966   -11.816933     1.072300
     419        3        0   -20.352557   -11.707963     3.966451
     420        3        0   -25.741857    -8.478584     4.716001
     421        1        0   -23.745339    -8.994528    10.644430
     422        1        0   -26.219497    -7.511963     9.614622
     423        1        0   -25.365881    -8.622194     6.720471
     424        1        0   -22.891724   -10.104758     7.750280
     425        2        0   -22.869033    -7.261125     7.235375
     426        2        0   -26.242188   -10.355596    10.129526
     427        3        0   -23.529726    -8.363715     7.235375
     428        3        0   -25.581495    -9.253006    10.129526
     429        3        0   -26.523469    -7.248158     7.610151
     430        3        0   -21.134166   -10.477533     6.860600
     431        3        0   -22.587757   -10.368563     9.754751
     432        3        0   -27.977057    -7.139184    10.504301
     433        1        0   -25.980539    -7.655128    16.432730
     434        1        0   -28.454697    -6.172563    15.402922
     435        1        0   -27.601081    -7.282794    12.508771
     436        1        0   -25.126924    -8.765358    13.538580
     437        2        0   -25.104233    -5.921725    13.023675
     438        2        0   -28.477388    -9.016196    15.917826
     439        3        0   -25.764926    -7.024315    13.023675
     440        3        0   -27.816695    -7.913606    15.917826
     441        3        0   -28.758669    -5.908758    13.398451
     442        3        0   -23.369366    -9.138133    12.648900
     443        3        0   -24.822957    -9.029163    15.543051
     444        3        0   -30.212257    -5.799784    16.292601
     445        1        0   -28.215739    -6.315728    22.221030
     446        1        0   -30.689897    -4.833163    21.191222
     447        1        0   -29.836281    -5.943394    18.297071
     448        1        0   -27.362124    -7.425958    19.326880
     449        2        0   -27.339433    -4.582325    18.811975
     450        3        0   -28.000126    -5.684915    18.811975
     451        3        0   -30.051895    -6.574206    21.706126