Configuration for Li2CO3 Bulk Crystal

12 atoms
3 atom types
ITEM: BOX BOUNDS xy xz yz xx yy zz
0 4.90692 xlo xhi 
0 4.32698 ylo yhi 
0 5.7883  zlo zhi 
-2.3141 -2.2352 1.3394 xy xz yz

Atoms
Position for Li2CO3 atoms
1 1 0   0.989081    2.647012    4.856130
2 1 0  -1.485077    4.129577    3.826322
3 1 0  -0.631461    3.019346    0.932171
4 1 0   1.842696    1.536782    1.961980
5 2 0   1.865387    4.380415    1.447075
6 2 0  -1.507768    1.285944    4.341226
7 3 0   1.204694    3.277825    1.447075
8 3 0  -0.847075    2.388534    4.341226
9 3 0  -1.789049    4.393382    1.821851
10 3 0  3.600254    1.164007    1.072300
11 3 0  2.146663    1.272977    3.966451
12 3 0 -3.242637    4.502356    4.716001