Configuration for MoS2 crystal

223 atoms
2 atom types
-200 200 xlo xhi
-200 200 ylo yhi
-5 5 zlo zhi

Atoms
position for MoS2 atoms
1 1 0 0.470445 1.829739 -1.565340
2 1 0 0.470445 1.829739 1.565340
3 1 0 3.853081 1.251942 1.565340
4 1 0 2.768865 4.588816 -1.565340
5 1 0 2.768865 4.588816 1.565340
6 1 0 1.684649 7.925691 1.565340
7 1 0 1.684649 7.925691 -1.565340
8 1 0 5.165864 7.044531 -1.565340
9 1 0 9.632717 3.129860 1.565340
10 1 0 6.250081 3.707657 -1.565340
11 1 0 3.853081 1.251942 -1.565340
12 1 0 9.632717 3.129860 -1.565340
13 1 0 5.165864 7.044531 1.565340
14 1 0 6.250081 3.707657 1.565340
15 1 0 7.334297 0.370782 -1.565340
16 1 0 7.334297 0.370782 1.565340
17 1 0 13.113934 2.248700 -1.565340
18 1 0 16.496571 1.159030 1.665340
19 1 0 7.464285 9.803608 1.565340
20 1 0 8.548501 6.466734 1.565340
21 1 0 8.548501 6.466734 -1.565340
22 1 0 10.945500 8.922448 1.565340
23 1 0 7.464285 9.803608 -1.565340
24 1 0 13.113934 2.248700 1.565340
25 1 0 22.276205 3.548820 -1.565340
26 1 0 17.809353 7.463492 1.565340
27 1 0 18.893568 4.126617 1.565340
28 1 0 21.191990 6.885695 -1.565340
29 1 0 17.809353 7.463492 -1.565340
30 1 0 15.412354 5.007777 1.565340
31 1 0 15.412354 5.007777 -1.565340
32 1 0 12.029716 5.585574 -1.565340
33 1 0 16.496569 1.159030 -1.565340
34 1 0 12.029716 5.585574 1.565340
35 1 0 14.328137 8.344651 -1.565340
36 1 0 21.191990 6.885695 1.565340
37 1 0 14.328137 8.344651 1.565340
38 1 0 10.945500 8.922448 -1.565340
39 1 0 25.757423 2.167660 1.565340
40 1 0 25.757421 2.167660 -1.565340
41 1 0 28.055843 5.426738 -1.565340
42 1 0 29.040058 1.689864 1.565340
43 1 0 29.040058 1.689864 -1.565340
44 1 0 19.777784 0.489743 -1.565340
45 1 0 19.777784 0.489743 1.565340
46 1 0 22.276205 3.548820 1.565340
47 1 0 18.893568 4.126617 -1.565340
48 1 0 33.835476 7.304656 -1.565340
49 1 0 28.055843 5.426738 1.565340
50 1 0 24.673204 6.004535 -1.565340
51 1 0 31.537058 4.545578 1.565340
52 1 0 31.537058 4.545578 -1.565340
53 1 0 34.919693 3.967781 -1.565340
54 1 0 32.421272 0.908704 1.565340
55 1 0 34.919693 3.967781 1.565340
56 1 0 26.971626 8.763612 1.565340
57 1 0 24.673204 6.004535 1.565340
58 1 0 23.588989 9.341409 1.565340
59 1 0 26.971626 8.763612 -1.565340
60 1 0 23.588989 9.341409 -1.565340
61 1 0 32.421272 0.908704 -1.565340
62 1 0 30.452843 7.882453 1.565340
63 1 0 33.835476 7.304656 1.565340
64 1 0 30.452843 7.882453 -1.565340
65 1 0 38.400909 3.086621 -1.565340
66 1 0 37.316692 6.423496 -1.565340
67 1 0 37.316692 6.423496 1.565340
68 1 0 38.400909 3.086621 1.565340
69 1 0 39.615112 9.182572 -1.565340
70 1 0 36.232475 9.760369 -1.565340
71 1 0 36.232475 9.760369 1.565340
72 1 0 39.615112 9.182572 1.565340
73 1 0 13.743999 -1.221599 1.565340
74 2 0 19.174210 -1.608377 0.000000
75 1 0 15.851396 -3.009309 -1.565340
76 1 0 15.851396 -3.009309 1.565340
77 1 0 13.744000 -1.221600 -1.565340
78 1 0 37.632030 -2.536932 -1.565340
79 1 0 34.413681 -3.727864 1.565340
80 1 0 37.632030 -2.536932 1.565340
81 1 0 34.413681 -3.727864 -1.565340
82 1 0 35.024635 -0.189223 -1.565340
83 1 0 37.021080 -6.075574 1.565340
84 1 0 37.021080 -6.075574 -1.565340
85 1 0 40.239426 -4.884642 -1.565340
86 1 0 40.239426 -4.884642 1.565340
87 1 0 35.024635 -0.189223 1.565340
88 2 0 31.806290 -1.080154 0.000000
89 1 0 22.325144 -0.800877 1.565340
90 1 0 25.843493 -0.009945 1.565340
91 1 0 30.347332 -8.244006 -1.565340
92 1 0 25.843493 -0.009945 -1.565340
93 1 0 36.173073 -9.400784 1.565340
94 1 0 25.132540 -3.548587 1.565340
95 1 0 28.350887 -2.357655 1.565340
96 1 0 22.325144 -0.800880 -1.565340
97 1 0 30.347332 -8.244006 1.565340
98 1 0 28.350887 -2.357655 -1.565340
99 1 0 30.958284 -4.705365 1.565340
100 1 0 27.739937 -5.896297 1.565340
101 1 0 36.173073 -9.400784 -1.565340
102 1 0 25.132540 -3.548587 -1.565340
103 1 0 33.565678 -7.053075 1.565340
104 1 0 30.958284 -4.705365 -1.565340
105 1 0 27.739937 -5.896297 -1.565340
106 1 0 33.565678 -7.053075 -1.565340
107 1 0 12.395993 -4.346810 -1.565340
108 1 0 12.395993 -4.346810 1.565340
109 1 0 9.177646 -5.537742 -1.565340
110 1 0 17.610785 -9.042230 1.565340
111 1 0 17.610785 -9.042230 -1.565340
112 1 0 9.177646 -5.537742 1.565340
113 1 0 11.785042 -7.885452 -1.565340
114 1 0 11.785042 -7.885452 1.565340
115 1 0 3.962854 -0.842322 1.565340
116 1 0 15.003390 -6.694520 1.565340
117 1 0 3.962854 -0.842322 -1.565340
118 1 0 15.003390 -6.694520 -1.565340
119 1 0 9.788597 -1.909100 1.565340
120 1 0 6.570250 -3.190032 1.565340
121 1 0 9.788597 -1.999100 -1.565340
122 1 0 6.570250 -3.190032 -1.565340
123 1 0 26.891932 -9.221507 1.565340
124 1 0 0.507452 -1.819823 -1.565340
125 1 0 0.507452 -1.819823 1.565340
126 1 0 18.458790 -5.717019 1.565340
127 1 0 21.677137 -4.526087 -1.565340
128 1 0 24.284534 -6.873797 1.565340
129 1 0 24.284534 -6.873797 -1.565340
130 1 0 21.066187 -8.064729 1.565340
131 1 0 21.677137 -4.526087 1.565340
132 1 0 21.066187 -8.064729 -1.565340
133 1 0 26.891932 -9.221507 -1.565340
134 1 0 18.458790 -5.717019 -1.565340
135 1 0 3.114849 -4.167532 -1.565340
136 1 0 2.503897 -7.706174 1.565340
137 1 0 3.114849 -4.167532 1.565340
138 1 0 5.722244 -6.515243 -1.565340
139 1 0 5.111293 -10.053884 -1.565340
140 1 0 5.722244 -6.515243 1.565340
141 1 0 5.111293 -10.053884 1.565340
142 1 0 8.329640 -8.862952 -1.565340
143 1 0 8.329640 -8.862952 1.565340
144 1 0 2.503897 -7.706174 -1.565340
145 1 0 39.628475 -8.423284 1.565340
146 1 0 39.628475 -8.423284 -1.565340
147 2 0 26.599751 6.630507 0.000000
148 2 0 23.118544 7.511671 0.000000
149 2 0 34.547817 1.834676 0.000000
150 2 0 28.898182 9.389587 0.000000
151 2 0 29.982397 6.052713 0.000000
152 2 0 25.515535 9.967381 0.000000
153 2 0 24.402761 4.004796 0.000000
154 2 0 27.683968 3.293633 0.000000
155 2 0 0.228558 9.129460 0.000000
156 2 0 2.396990 2.455711 0.000000
157 2 0 9.504299 0.900000 0.000000
158 2 0 1.312774 5.792586 0.000000
159 2 0 0.000000 0.000000 0.000000
160 2 0 4.695420 5.214792 0.000000
161 2 0 3.611204 8.551666 0.000000
162 2 0 7.092410 7.670504 0.000000
163 2 0 8.176625 4.333629 0.000000
164 2 0 5.779636 1.877918 0.000000
165 2 0 12.872046 9.548421 0.000000
166 2 0 15.040479 2.874672 0.000000
167 2 0 11.559272 3.755835 0.000000
168 2 0 13.956263 6.211547 0.000000
169 2 0 10.475056 7.092710 0.000000
170 2 0 12.643489 0.418961 0.000000
171 2 0 18.423124 2.296878 0.000000
172 2 0 19.735897 8.089463 0.000000
173 2 0 16.254690 8.970627 0.000000
174 2 0 21.904331 1.415715 0.000000
175 2 0 17.338907 5.633753 0.000000
176 2 0 20.820114 4.752590 0.000000
177 2 0 33.463600 5.171550 0.000000
178 2 0 32.379383 8.508425 0.000000
179 2 0 31.066614 2.715839 0.000000
180 2 0 40.327454 3.712594 0.000000
181 2 0 36.846249 4.593757 0.000000
182 1 0 37.930462 1.256882 1.565340
183 2 0 39.243237 7.049469 0.000000
184 2 0 35.762032 7.930632 0.000000
185 2 0 30.450832 -2.885542 0.000000
186 2 0 33.058224 -5.233252 0.000000
187 2 0 35.665623 -7.580963 0.000000
188 2 0 29.602833 -6.210746 0.000000
189 2 0 32.210224 -8.558455 0.000000
190 2 0 38.273018 -9.928672 0.000000
191 2 0 26.995438 -3.863036 0.000000
192 2 0 28.043436 -0.337832 0.000000
193 2 0 24.388041 -1.515326 0.000000
194 2 0 38.883976 -6.390023 0.000000
195 2 0 33.669182 -1.694603 0.000000
196 2 0 37.124577 -0.717110 0.000000
197 2 0 39.731976 -3.064820 0.000000
198 2 0 36.276581 -4.042313 0.000000
199 2 0 22.929083 -8.379178 0.000000
200 2 0 10.429584 -9.390840 0.000000
201 2 0 26.384478 -7.401685 0.000000
202 2 0 28.991875 -9.749394 0.000000
203 2 0 20.321688 -6.031468 0.000000
204 2 0 23.777082 -5.053975 0.000000
205 2 0 15.368950 -0.800490 0.000000
206 2 0 18.002911 -3.583758 0.000000
207 2 0 21.169685 -2.706265 0.000000
208 2 0 4.366793 -8.020623 0.000000
209 2 0 5.214792 -4.695420 0.000000
210 2 0 2.607396 -2.347710 0.000000
211 2 0 7.822188 -7.043130 0.000000
212 2 0 1.759398 -5.672914 0.000000
213 2 0 13.647939 -8.199901 0.000000
214 2 0 8.433146 -3.504481 0.000000
215 2 0 11.888541 -2.526987 0.000000
216 2 0 14.495937 -4.874697 0.000000
217 2 0 17.103333 -7.222407 0.000000
218 2 0 6.055850 -1.223855 0.000000
219 1 0 37.930462 1.256882 -1.565340
220 2 0 11.159000 -5.958915 0.000000
221 2 0 10.585970 -0.410000 0.000000
222 1 0 -0.327740 5.292586 1.565340
223 1 0 -0.327740 5.292586 -1.565340
